                         Program Version 4.2.0 -  RELEASE  -
|  1> # Test redundant internal optimization
|  2> #
|  3> ! RKS B3LYP  Opt TightSCF SmallPrint
|  4>
|  5> %basis
|  6>         Basis "6-31G"
|  7> end
|  8>
|  9> %geom
| 10> Constraints
| 11> { D 4  0  15  12  195.0   C } # D for Dihedral angle
| 12> { D 0  15  12  16  150.0   C } # D for Dihedral angle
| 13> { D 0  4  3  2   C } # D for Dihedral angle
| 14> { D 4  3  2  1   C } # D for Dihedral angle
| 15> { D 3  2  1  0   C } # D for Dihedral angle
| 16> { D 2  1  0  4   C } # D for Dihedral angle
| 17> { D 1  0  4  3   C } # D for Dihedral angle
| 18> { D 16  20  19  18   C } # D for Dihedral angle
| 19> { D 20  19  18  17   C } # D for Dihedral angle
| 20> { D 19  18  17  16   C } # D for Dihedral angle
| 21> { D 18  17  16  20   C } # D for Dihedral angle
| 22> { D 17  16  20  19   C } # D for Dihedral angle
| 23> { D 15  12  16  20   C } # D for Dihedral angle
| 24> end
| 25> end
| 26>
| 27>
| 28> #%pal
| 29> #nprocs 8
| 30> #end
| 31>
| 32> * xyz 0 1
| 33> C  -21.048   26.222   46.251
| 34> C  -20.361   27.558   45.944
| 35> C  -20.329   28.222   47.341
| 36> C  -20.110   27.022   48.296
| 37> O  -20.473   25.807   47.535
| 38> H  -20.833   25.428   45.533
| 39> H  -19.344   27.382   45.576
| 40> H  -20.898   28.157   45.201
| 41> H  -19.543   28.978   47.434
| 42> H  -21.289   28.710   47.548
| 43> H  -20.733   27.082   49.195
| 44> H  -19.064   26.913   48.597
| 45> C  -23.353   26.472   45.026
| 46> H  -23.409   27.519   44.702
| 47> H  -22.826   25.901   44.251
| 48> O  -22.586   26.394   46.375
| 49> C  -24.799   25.913   45.124
| 50> C  -25.484   25.898   43.754
| 51> C  -24.873   24.631   43.110
| 52> C  -24.714   23.668   44.314
| 53> O  -24.777   24.504   45.532
| 54> H  -25.343   26.461   45.896
| 55> H  -26.568   25.786   43.875
| 56> O  -25.216   27.184   42.924
| 57> H  -25.502   24.210   42.320
| 58> H  -23.896   24.865   42.672
| 59> H  -23.759   23.131   44.297
| 60> H  -25.528   22.942   44.378
| 61> H  -24.137   27.317   42.788
| 62> *
| 63>
| 64>                          ****END OF INPUT****
 Total Charge           Charge          ....    0
 Multiplicity           Mult            ....    1
 Number of Electrons    NEL             ....  102
FINAL SINGLE POINT ENERGY      -652.823863095604
FINAL SINGLE POINT ENERGY      -652.847994253934
FINAL SINGLE POINT ENERGY      -652.852406569963
FINAL SINGLE POINT ENERGY      -652.853223765126
FINAL SINGLE POINT ENERGY      -652.853377298617
FINAL SINGLE POINT ENERGY      -652.853410139532
FINAL SINGLE POINT ENERGY      -652.853416369032
FINAL SINGLE POINT ENERGY      -652.853417709701
                    ***********************HURRAY********************

CARTESIAN COORDINATES (ANGSTROEM)
---------------------------------
  C    -21.050882   26.237135   46.176221
  C    -20.339075   27.570025   45.955512
  C    -20.411927   28.210885   47.363248
  C    -20.274115   26.993424   48.300766
  O    -20.589755   25.806047   47.462234
  H    -20.808869   25.449239   45.453445
  H    -19.298523   27.382826   45.664133
  H    -20.806971   28.186131   45.181688
  H    -19.628418   28.956747   47.526537
  H    -21.384652   28.692954   47.498944
  H    -20.967819   27.016143   49.144375
  H    -19.254108   26.852174   48.670131
  C    -23.172044   26.504102   44.969367
  H    -23.236917   27.552310   44.644522
  H    -22.611896   25.938803   44.205685
  O    -22.493899   26.402910   46.246039
  C    -24.580907   25.933569   45.129408
  C    -25.412530   25.937761   43.836794
  C    -24.928678   24.631295   43.138435
  C    -24.685672   23.680380   44.331269
  O    -24.579452   24.534802   45.542352
  H    -25.073963   26.479725   45.938779
  H    -26.472318   25.864072   44.089293
  O    -25.312426   27.137997   43.031296
  H    -25.664643   24.246691   42.427118
  H    -23.999698   24.831576   42.587003
  H    -23.769462   23.090161   44.228376
  H    -25.525873   22.998701   44.494838
  H    -24.459509   27.158417   42.551194

 Multiplicity           Mult            ....    1
 Number of Electrons    NEL             ....  102
 Basis Dimension        Dim             ....  149

ORBITAL ENERGIES
----------------

  NO   OCC          E(Eh)            E(eV)
   0   2.0000     -19.151747      -521.1455
   1   2.0000     -19.137563      -520.7596
   2   2.0000     -19.137420      -520.7557
   3   2.0000     -19.135437      -520.7017
   4   2.0000     -10.277633      -279.6686
   5   2.0000     -10.246176      -278.8126
   6   2.0000     -10.233165      -278.4586
   7   2.0000     -10.230136      -278.3762
   8   2.0000     -10.230101      -278.3752
   9   2.0000     -10.222234      -278.1611
  10   2.0000     -10.197409      -277.4856
  11   2.0000     -10.186074      -277.1772
  12   2.0000     -10.184971      -277.1471
  13   2.0000      -1.051947       -28.6249
  14   2.0000      -1.034430       -28.1483
  15   2.0000      -1.015619       -27.6364
  16   2.0000      -0.992389       -27.0043
  17   2.0000      -0.785685       -21.3796
  18   2.0000      -0.782922       -21.3044
  19   2.0000      -0.767792       -20.8927
  20   2.0000      -0.729512       -19.8510
  21   2.0000      -0.681672       -18.5492
  22   2.0000      -0.612318       -16.6620
  23   2.0000      -0.599385       -16.3101
  24   2.0000      -0.589092       -16.0300
  25   2.0000      -0.577987       -15.7278
  26   2.0000      -0.529353       -14.4044
  27   2.0000      -0.509508       -13.8644
  28   2.0000      -0.501353       -13.6425
  29   2.0000      -0.489638       -13.3237
  30   2.0000      -0.467615       -12.7245
  31   2.0000      -0.460042       -12.5184
  32   2.0000      -0.449690       -12.2367
  33   2.0000      -0.434961       -11.8359
  34   2.0000      -0.429730       -11.6936
  35   2.0000      -0.416025       -11.3206
  36   2.0000      -0.407463       -11.0876
  37   2.0000      -0.395600       -10.7648
  38   2.0000      -0.380111       -10.3434
  39   2.0000      -0.370415       -10.0795
  40   2.0000      -0.359502        -9.7826
  41   2.0000      -0.354610        -9.6494
  42   2.0000      -0.349770        -9.5177
  43   2.0000      -0.331908        -9.0317
  44   2.0000      -0.314971        -8.5708
  45   2.0000      -0.310439        -8.4475
  46   2.0000      -0.303682        -8.2636
  47   2.0000      -0.272015        -7.4019
  48   2.0000      -0.257914        -7.0182
  49   2.0000      -0.250277        -6.8104
  50   2.0000      -0.238732        -6.4962
  51   0.0000       0.048067         1.3080
  52   0.0000       0.071335         1.9411
  53   0.0000       0.086774         2.3612
  54   0.0000       0.090914         2.4739
  55   0.0000       0.107401         2.9225

MULLIKEN ATOMIC CHARGES
-----------------------
   0 C :    0.303484
   1 C :   -0.273270
   2 C :   -0.298306
   3 C :   -0.001150
   4 O :   -0.500279
   5 H :    0.136284
   6 H :    0.143689
   7 H :    0.139347
   8 H :    0.141400
   9 H :    0.161118
  10 H :    0.157279
  11 H :    0.140449
  12 C :   -0.019213
  13 H :    0.133974
  14 H :    0.108997
  15 O :   -0.496918
  16 C :    0.099069
  17 C :    0.079047
  18 C :   -0.329832
  19 C :   -0.011867
  20 O :   -0.497804
  21 H :    0.169292
  22 H :    0.171653
  23 O :   -0.599263
  24 H :    0.160482
  25 H :    0.130302
  26 H :    0.145285
  27 H :    0.152320
  28 H :    0.354432
Sum of atomic charges:   -0.0000000

LOEWDIN ATOMIC CHARGES
----------------------
   0 C :    0.180676
   1 C :   -0.232190
   2 C :   -0.216761
   3 C :   -0.024605
   4 O :   -0.300829
   5 H :    0.094291
   6 H :    0.113291
   7 H :    0.111913
   8 H :    0.114002
   9 H :    0.118630
  10 H :    0.110997
  11 H :    0.101831
  12 C :   -0.052714
  13 H :    0.096137
  14 H :    0.083962
  15 O :   -0.319811
  16 C :    0.021428
  17 C :    0.033901
  18 C :   -0.243651
  19 C :   -0.031117
  20 O :   -0.308148
  21 H :    0.122241
  22 H :    0.121220
  23 O :   -0.407752
  24 H :    0.123491
  25 H :    0.102133
  26 H :    0.103446
  27 H :    0.107275
  28 H :    0.276716

  Mayer bond orders larger than 0.100000
B(  0-C ,  1-C ) :   0.9256 B(  0-C ,  4-O ) :   0.9417 B(  0-C ,  5-H ) :   0.9181
B(  0-C , 15-O ) :   0.8367 B(  1-C ,  2-C ) :   0.9538 B(  1-C ,  6-H ) :   0.9343
B(  1-C ,  7-H ) :   0.9364 B(  2-C ,  3-C ) :   0.9556 B(  2-C ,  8-H ) :   0.9452
B(  2-C ,  9-H ) :   0.9441 B(  3-C ,  4-O ) :   0.8360 B(  3-C , 10-H ) :   0.9339
B(  3-C , 11-H ) :   0.9398 B( 12-C , 13-H ) :   0.9024 B( 12-C , 14-H ) :   0.9127
B( 12-C , 15-O ) :   0.8534 B( 12-C , 16-C ) :   0.9023 B( 16-C , 17-C ) :   0.8737
B( 16-C , 20-O ) :   0.8765 B( 16-C , 21-H ) :   0.9283 B( 17-C , 18-C ) :   0.9242
B( 17-C , 22-H ) :   0.9318 B( 17-C , 23-O ) :   0.8946 B( 18-C , 19-C ) :   0.9389
B( 18-C , 24-H ) :   0.9413 B( 18-C , 25-H ) :   0.9404 B( 19-C , 20-O ) :   0.8523
B( 19-C , 26-H ) :   0.9312 B( 19-C , 27-H ) :   0.9369 B( 23-O , 28-H ) :   0.7994

FINAL SINGLE POINT ENERGY      -652.853418002254

DIPOLE MOMENT
-------------
                                X             Y             Z
Electronic contribution:     -2.80900      -2.08217       1.94498
Nuclear contribution   :      3.49176       2.54353      -3.23689
                        -----------------------------------------
Total Dipole Moment    :      0.68276       0.46137      -1.29190
                        -----------------------------------------
Magnitude (a.u.)       :      1.53233
Magnitude (Debye)      :      3.89488

Rotational constants in cm-1:     0.057504     0.012344     0.011115
Rotational constants in MHz :  1723.922751   370.074316   333.210803

                             ****ORCA TERMINATED NORMALLY****
TOTAL RUN TIME: 0 days 0 hours 23 minutes 28 seconds 246 msec
