                         Program Version 4.2.0 -  RELEASE  -
|  1> # Test redundant internal optimization
|  2> #
|  3> ! RKS B3LYP  Opt TightSCF SmallPrint
|  4>
|  5> %basis
|  6>         Basis "6-31G"
|  7> end
|  8>
|  9> %geom
| 10> Constraints
| 11> { D 4  0  15  12  225.0   C } # D for Dihedral angle
| 12> { D 0  15  12  16  30.0   C } # D for Dihedral angle
| 13> { D 0  4  3  2   C } # D for Dihedral angle
| 14> { D 4  3  2  1   C } # D for Dihedral angle
| 15> { D 3  2  1  0   C } # D for Dihedral angle
| 16> { D 2  1  0  4   C } # D for Dihedral angle
| 17> { D 1  0  4  3   C } # D for Dihedral angle
| 18> { D 16  20  19  18   C } # D for Dihedral angle
| 19> { D 20  19  18  17   C } # D for Dihedral angle
| 20> { D 19  18  17  16   C } # D for Dihedral angle
| 21> { D 18  17  16  20   C } # D for Dihedral angle
| 22> { D 17  16  20  19   C } # D for Dihedral angle
| 23> { D 15  12  16  20   C } # D for Dihedral angle
| 24> end
| 25> end
| 26>
| 27>
| 28> #%pal
| 29> #nprocs 8
| 30> #end
| 31>
| 32> * xyz 0 1
| 33> C  -21.048   26.222   46.251
| 34> C  -20.361   27.558   45.944
| 35> C  -20.329   28.222   47.341
| 36> C  -20.110   27.022   48.296
| 37> O  -20.473   25.807   47.535
| 38> H  -20.833   25.428   45.533
| 39> H  -19.344   27.382   45.576
| 40> H  -20.898   28.157   45.201
| 41> H  -19.543   28.978   47.434
| 42> H  -21.289   28.710   47.548
| 43> H  -20.733   27.082   49.195
| 44> H  -19.064   26.913   48.597
| 45> C  -23.415   25.773   45.218
| 46> H  -24.398   25.468   45.600
| 47> H  -23.572   26.509   44.419
| 48> O  -22.586   26.394   46.375
| 49> C  -22.729   24.530   44.587
| 50> C  -23.516   24.014   43.377
| 51> C  -23.080   25.006   42.273
| 52> C  -21.601   25.300   42.628
| 53> O  -21.418   24.892   44.038
| 54> H  -22.555   23.783   45.365
| 55> H  -23.199   22.995   43.128
| 56> O  -25.052   24.005   43.607
| 57> H  -23.194   24.596   41.264
| 58> H  -23.680   25.922   42.332
| 59> H  -21.348   26.361   42.527
| 60> H  -20.902   24.710   42.028
| 61> H  -25.394   25.015   43.857
| 62> *
| 63>
| 64>                          ****END OF INPUT****
 Total Charge           Charge          ....    0
 Multiplicity           Mult            ....    1
 Number of Electrons    NEL             ....  102
FINAL SINGLE POINT ENERGY      -652.816881005163
FINAL SINGLE POINT ENERGY      -652.838386731948
FINAL SINGLE POINT ENERGY      -652.850800628242
FINAL SINGLE POINT ENERGY      -652.852832092655
FINAL SINGLE POINT ENERGY      -652.853201395573
FINAL SINGLE POINT ENERGY      -652.853250600926
FINAL SINGLE POINT ENERGY      -652.853259614469
FINAL SINGLE POINT ENERGY      -652.853260631440
                    ***********************HURRAY********************

CARTESIAN COORDINATES (ANGSTROEM)
---------------------------------
  C    -20.837311   26.238308   46.256366
  C    -20.249001   27.635248   46.060207
  C    -20.450327   28.267692   47.459190
  C    -20.237950   27.068849   48.409984
  O    -20.394576   25.855146   47.571930
  H    -20.503200   25.480823   45.553557
  H    -19.182507   27.551522   45.818375
  H    -20.747657   28.189672   45.260905
  H    -19.753599   29.087648   47.657469
  H    -21.472158   28.648654   47.544589
  H    -20.967846   27.031982   49.223344
  H    -19.227436   27.033916   48.829472
  C    -23.153006   25.788900   45.245059
  H    -24.087055   25.534020   45.756959
  H    -23.370219   26.588247   44.515756
  O    -22.295689   26.337729   46.278463
  C    -22.669699   24.543110   44.496771
  C    -23.645160   24.074011   43.400213
  C    -23.233708   24.978883   42.197199
  C    -21.704515   25.113443   42.379385
  O    -21.405236   24.735350   43.787054
  H    -22.475200   23.750388   45.226457
  H    -23.450141   23.024398   43.170967
  O    -25.047023   24.116812   43.749645
  H    -23.509178   24.535901   41.236723
  H    -23.734754   25.951637   42.279907
  H    -21.340724   26.129540   42.199795
  H    -21.147855   24.421626   41.741295
  H    -25.371272   25.040546   43.766965

 Multiplicity           Mult            ....    1
 Number of Electrons    NEL             ....  102
 Basis Dimension        Dim             ....  149

ORBITAL ENERGIES
----------------

  NO   OCC          E(Eh)            E(eV)
   0   2.0000     -19.156186      -521.2663
   1   2.0000     -19.151756      -521.1458
   2   2.0000     -19.129042      -520.5277
   3   2.0000     -19.125484      -520.4309
   4   2.0000     -10.260566      -279.2042
   5   2.0000     -10.253248      -279.0051
   6   2.0000     -10.240582      -278.6604
   7   2.0000     -10.238542      -278.6049
   8   2.0000     -10.233239      -278.4606
   9   2.0000     -10.213345      -277.9193
  10   2.0000     -10.202934      -277.6359
  11   2.0000     -10.175140      -276.8796
  12   2.0000     -10.173752      -276.8419
  13   2.0000      -1.044825       -28.4311
  14   2.0000      -1.035560       -28.1790
  15   2.0000      -1.024976       -27.8910
  16   2.0000      -0.980205       -26.6727
  17   2.0000      -0.791198       -21.5296
  18   2.0000      -0.777102       -21.1460
  19   2.0000      -0.767354       -20.8808
  20   2.0000      -0.726832       -19.7781
  21   2.0000      -0.680631       -18.5209
  22   2.0000      -0.620722       -16.8907
  23   2.0000      -0.600401       -16.3377
  24   2.0000      -0.586640       -15.9633
  25   2.0000      -0.562129       -15.2963
  26   2.0000      -0.537607       -14.6290
  27   2.0000      -0.511865       -13.9285
  28   2.0000      -0.494643       -13.4599
  29   2.0000      -0.476272       -12.9600
  30   2.0000      -0.472626       -12.8608
  31   2.0000      -0.454730       -12.3738
  32   2.0000      -0.439457       -11.9582
  33   2.0000      -0.437808       -11.9133
  34   2.0000      -0.431806       -11.7500
  35   2.0000      -0.422676       -11.5016
  36   2.0000      -0.405949       -11.0464
  37   2.0000      -0.393449       -10.7063
  38   2.0000      -0.388092       -10.5605
  39   2.0000      -0.367606       -10.0031
  40   2.0000      -0.358029        -9.7425
  41   2.0000      -0.346124        -9.4185
  42   2.0000      -0.341317        -9.2877
  43   2.0000      -0.333683        -9.0800
  44   2.0000      -0.326696        -8.8899
  45   2.0000      -0.302730        -8.2377
  46   2.0000      -0.298430        -8.1207
  47   2.0000      -0.279627        -7.6090
  48   2.0000      -0.254151        -6.9158
  49   2.0000      -0.251776        -6.8512
  50   2.0000      -0.230464        -6.2713
  51   0.0000       0.044922         1.2224
  52   0.0000       0.067986         1.8500
  53   0.0000       0.085575         2.3286
  54   0.0000       0.095625         2.6021
  55   0.0000       0.103017         2.8032

MULLIKEN ATOMIC CHARGES
-----------------------
   0 C :    0.259431
   1 C :   -0.251057
   2 C :   -0.297574
   3 C :    0.000396
   4 O :   -0.502779
   5 H :    0.199190
   6 H :    0.140214
   7 H :    0.133998
   8 H :    0.134439
   9 H :    0.158373
  10 H :    0.147724
  11 H :    0.136201
  12 C :    0.012263
  13 H :    0.156539
  14 H :    0.107183
  15 O :   -0.537158
  16 C :    0.058378
  17 C :    0.086417
  18 C :   -0.320052
  19 C :   -0.008974
  20 O :   -0.523144
  21 H :    0.175186
  22 H :    0.173053
  23 O :   -0.596485
  24 H :    0.158210
  25 H :    0.138462
  26 H :    0.145278
  27 H :    0.157031
  28 H :    0.359256
Sum of atomic charges:   -0.0000000

LOEWDIN ATOMIC CHARGES
----------------------
   0 C :    0.169125
   1 C :   -0.221569
   2 C :   -0.217677
   3 C :   -0.027569
   4 O :   -0.313168
   5 H :    0.124338
   6 H :    0.110914
   7 H :    0.111681
   8 H :    0.110323
   9 H :    0.117253
  10 H :    0.105492
  11 H :    0.099192
  12 C :   -0.043058
  13 H :    0.117417
  14 H :    0.079943
  15 O :   -0.337840
  16 C :    0.004085
  17 C :    0.039446
  18 C :   -0.240196
  19 C :   -0.029195
  20 O :   -0.324282
  21 H :    0.122225
  22 H :    0.121897
  23 O :   -0.402918
  24 H :    0.123775
  25 H :    0.106407
  26 H :    0.103901
  27 H :    0.109749
  28 H :    0.280308

  Mayer bond orders larger than 0.100000
B(  0-C ,  1-C ) :   0.9396 B(  0-C ,  4-O ) :   0.9188 B(  0-C ,  5-H ) :   0.8894
B(  0-C , 15-O ) :   0.8148 B(  1-C ,  2-C ) :   0.9557 B(  1-C ,  6-H ) :   0.9377
B(  1-C ,  7-H ) :   0.9416 B(  2-C ,  3-C ) :   0.9551 B(  2-C ,  8-H ) :   0.9462
B(  2-C ,  9-H ) :   0.9441 B(  3-C ,  4-O ) :   0.8434 B(  3-C , 10-H ) :   0.9351
B(  3-C , 11-H ) :   0.9402 B( 12-C , 13-H ) :   0.9145 B( 12-C , 14-H ) :   0.9191
B( 12-C , 15-O ) :   0.8708 B( 12-C , 16-C ) :   0.9007 B( 16-C , 17-C ) :   0.8726
B( 16-C , 20-O ) :   0.8355 B( 16-C , 21-H ) :   0.9242 B( 17-C , 18-C ) :   0.9212
B( 17-C , 22-H ) :   0.9320 B( 17-C , 23-O ) :   0.9056 B( 18-C , 19-C ) :   0.9398
B( 18-C , 24-H ) :   0.9421 B( 18-C , 25-H ) :   0.9392 B( 19-C , 20-O ) :   0.8343
B( 19-C , 26-H ) :   0.9330 B( 19-C , 27-H ) :   0.9374 B( 23-O , 28-H ) :   0.7961

FINAL SINGLE POINT ENERGY      -652.853260636662

DIPOLE MOMENT
-------------
                                X             Y             Z
Electronic contribution:     -1.29998      -4.74142       1.48588
Nuclear contribution   :      1.11978       5.73723      -2.81245
                        -----------------------------------------
Total Dipole Moment    :     -0.18020       0.99581      -1.32657
                        -----------------------------------------
Magnitude (a.u.)       :      1.66850
Magnitude (Debye)      :      4.24098

Rotational constants in cm-1:     0.059797     0.013038     0.012075
Rotational constants in MHz :  1792.676276   390.875429   362.011479

                             ****ORCA TERMINATED NORMALLY****
TOTAL RUN TIME: 0 days 0 hours 27 minutes 14 seconds 734 msec
