                         Program Version 4.2.1 -  RELEASE  -
|  1> # Test redundant internal optimization
|  2> #
|  3> ! RKS B3LYP  Opt TightSCF SmallPrint
|  4>
|  5> %basis
|  6>         Basis "6-31G"
|  7> end
|  8>
|  9> %geom
| 10> Constraints
| 11> { D 4  0  19  14  135.0   C } # D for Dihedral angle
| 12> { D 0  19  14  12  120.0   C } # D for Dihedral angle
| 13> { D 0  4  3  2   C } # D for Dihedral angle
| 14> { D 4  3  2  1   C } # D for Dihedral angle
| 15> { D 3  2  1  0   C } # D for Dihedral angle
| 16> { D 2  1  0  4   C } # D for Dihedral angle
| 17> { D 1  0  4  3   C } # D for Dihedral angle
| 18> { D 14  15  16  17   C } # D for Dihedral angle
| 19> { D 15  16  17  12   C } # D for Dihedral angle
| 20> { D 16  17  12  14   C } # D for Dihedral angle
| 21> { D 17  12  14  15   C } # D for Dihedral angle
| 22> { D 12  14  15  16   C } # D for Dihedral angle
| 23> end
| 24> end
| 25>
| 26>
| 27> #%pal
| 28> #nprocs 8
| 29> #end
| 30>
| 31> * xyz 0 1
| 32> C  -21.048   26.222   46.251
| 33> C  -20.361   27.558   45.944
| 34> C  -20.329   28.222   47.341
| 35> C  -20.110   27.022   48.296
| 36> O  -20.473   25.807   47.535
| 37> H  -20.833   25.428   45.533
| 38> H  -19.344   27.382   45.576
| 39> H  -20.898   28.157   45.201
| 40> H  -19.543   28.978   47.434
| 41> H  -21.289   28.710   47.548
| 42> H  -20.733   27.082   49.195
| 43> H  -19.064   26.913   48.597
| 44> C  -23.996   27.213   44.660
| 45> H  -24.184   28.066   43.990
| 46> C  -22.986   27.575   45.755
| 47> C  -23.870   28.361   46.751
| 48> C  -25.236   27.636   46.657
| 49> O  -25.216   26.862   45.396
| 50> H  -23.722   26.342   44.062
| 51> O  -22.472   26.381   46.366
| 52> H  -22.140   28.164   45.382
| 53> H  -23.467   28.363   47.768
| 54> H  -23.965   29.406   46.428
| 55> H  -26.082   28.332   46.637
| 56> H  -25.386   26.920   47.471
| 57> *
| 58>
| 59>                          ****END OF INPUT****
 Total Charge           Charge          ....    0
 Multiplicity           Mult            ....    1
 Number of Electrons    NEL             ....   86
FINAL SINGLE POINT ENERGY      -538.396075672508
FINAL SINGLE POINT ENERGY      -538.420444481310
FINAL SINGLE POINT ENERGY      -538.421912884972
FINAL SINGLE POINT ENERGY      -538.422267571128
FINAL SINGLE POINT ENERGY      -538.422296983316
FINAL SINGLE POINT ENERGY      -538.422303889824
                    ***********************HURRAY********************

CARTESIAN COORDINATES (ANGSTROEM)
---------------------------------
  C    -21.036783   26.298446   46.261281
  C    -20.122836   27.487649   45.956888
  C    -20.082379   28.223574   47.323080
  C    -20.132178   27.055654   48.334431
  O    -20.635281   25.884406   47.580223
  H    -20.883597   25.431523   45.615283
  H    -19.132143   27.090850   45.709002
  H    -20.438673   28.120572   45.124592
  H    -19.183863   28.837036   47.438519
  H    -20.954551   28.877261   47.432815
  H    -20.800566   27.247339   49.178418
  H    -19.142505   26.785884   48.714309
  C    -24.113444   27.269960   44.629234
  H    -24.416975   28.116691   43.993802
  C    -23.109794   27.722940   45.691019
  C    -24.035762   28.368523   46.742411
  C    -25.306991   27.488530   46.683339
  O    -25.246434   26.756065   45.398340
  H    -23.740817   26.454659   44.006752
  O    -22.470469   26.560368   46.289160
  H    -22.377521   28.431815   45.293386
  H    -23.569601   28.372272   47.730200
  H    -24.258179   29.403182   46.453841
  H    -26.229003   28.079299   46.716737
  H    -25.326658   26.737501   47.476940

 Multiplicity           Mult            ....    1
 Number of Electrons    NEL             ....   86
 Basis Dimension        Dim             ....  127

ORBITAL ENERGIES
----------------

  NO   OCC          E(Eh)            E(eV)
   0   2.0000     -19.139355      -520.8083
   1   2.0000     -19.135514      -520.7038
   2   2.0000     -19.125139      -520.4215
   3   2.0000     -10.282274      -279.7949
   4   2.0000     -10.243161      -278.7306
   5   2.0000     -10.228609      -278.3346
   6   2.0000     -10.220483      -278.1135
   7   2.0000     -10.217151      -278.0228
   8   2.0000     -10.197040      -277.4756
   9   2.0000     -10.196139      -277.4510
  10   2.0000     -10.185293      -277.1559
  11   2.0000      -1.051241       -28.6057
  12   2.0000      -1.012559       -27.5531
  13   2.0000      -0.986690       -26.8492
  14   2.0000      -0.793262       -21.5858
  15   2.0000      -0.784194       -21.3390
  16   2.0000      -0.739904       -20.1338
  17   2.0000      -0.725410       -19.7394
  18   2.0000      -0.621252       -16.9051
  19   2.0000      -0.604864       -16.4592
  20   2.0000      -0.595856       -16.2141
  21   2.0000      -0.564986       -15.3741
  22   2.0000      -0.528577       -14.3833
  23   2.0000      -0.506058       -13.7705
  24   2.0000      -0.489324       -13.3152
  25   2.0000      -0.480579       -13.0772
  26   2.0000      -0.451899       -12.2968
  27   2.0000      -0.446519       -12.1504
  28   2.0000      -0.429707       -11.6929
  29   2.0000      -0.423396       -11.5212
  30   2.0000      -0.405699       -11.0396
  31   2.0000      -0.385651       -10.4941
  32   2.0000      -0.375657       -10.2222
  33   2.0000      -0.367210        -9.9923
  34   2.0000      -0.364740        -9.9251
  35   2.0000      -0.357638        -9.7318
  36   2.0000      -0.355476        -9.6730
  37   2.0000      -0.315387        -8.5821
  38   2.0000      -0.301347        -8.2001
  39   2.0000      -0.291095        -7.9211
  40   2.0000      -0.264310        -7.1922
  41   2.0000      -0.250543        -6.8176
  42   2.0000      -0.229091        -6.2339
  43   0.0000       0.066093         1.7985
  44   0.0000       0.092468         2.5162
  45   0.0000       0.094252         2.5647
  46   0.0000       0.107216         2.9175
  47   0.0000       0.113932         3.1003

MULLIKEN ATOMIC CHARGES
-----------------------
   0 C :    0.320809
   1 C :   -0.305602
   2 C :   -0.305665
   3 C :   -0.000685
   4 O :   -0.493398
   5 H :    0.155274
   6 H :    0.157115
   7 H :    0.145207
   8 H :    0.146213
   9 H :    0.151906
  10 H :    0.148478
  11 H :    0.144868
  12 C :    0.015624
  13 H :    0.117952
  14 C :    0.056466
  15 C :   -0.288343
  16 C :    0.005914
  17 O :   -0.516675
  18 H :    0.157723
  19 O :   -0.521939
  20 H :    0.123329
  21 H :    0.157652
  22 H :    0.136811
  23 H :    0.130532
  24 H :    0.160432
Sum of atomic charges:   -0.0000000

LOEWDIN ATOMIC CHARGES
----------------------
   0 C :    0.186128
   1 C :   -0.234117
   2 C :   -0.219743
   3 C :   -0.028393
   4 O :   -0.307933
   5 H :    0.104401
   6 H :    0.122812
   7 H :    0.113144
   8 H :    0.116353
   9 H :    0.110469
  10 H :    0.105816
  11 H :    0.104144
  12 C :   -0.040652
  13 H :    0.088130
  14 C :    0.036422
  15 C :   -0.230451
  16 C :   -0.026433
  17 O :   -0.327488
  18 H :    0.117842
  19 O :   -0.327482
  20 H :    0.095679
  21 H :    0.123250
  22 H :    0.109608
  23 H :    0.096391
  24 H :    0.112104

  Mayer bond orders larger than 0.100000
B(  0-C ,  1-C ) :   0.9304 B(  0-C ,  4-O ) :   0.9225 B(  0-C ,  5-H ) :   0.9283
B(  0-C , 19-O ) :   0.8623 B(  1-C ,  2-C ) :   0.9500 B(  1-C ,  6-H ) :   0.9327
B(  1-C ,  7-H ) :   0.9255 B(  2-C ,  3-C ) :   0.9516 B(  2-C ,  8-H ) :   0.9456
B(  2-C ,  9-H ) :   0.9428 B(  3-C ,  4-O ) :   0.8443 B(  3-C , 10-H ) :   0.9339
B(  3-C , 11-H ) :   0.9393 B( 12-C , 13-H ) :   0.9113 B( 12-C , 14-C ) :   0.9224
B( 12-C , 17-O ) :   0.8779 B( 12-C , 18-H ) :   0.9337 B( 14-C , 15-C ) :   0.9447
B( 14-C , 19-O ) :   0.8319 B( 14-C , 20-H ) :   0.9077 B( 15-C , 16-C ) :   0.9473
B( 15-C , 21-H ) :   0.9381 B( 15-C , 22-H ) :   0.9392 B( 16-C , 17-O ) :   0.8568
B( 16-C , 23-H ) :   0.9338 B( 16-C , 24-H ) :   0.9350

FINAL SINGLE POINT ENERGY      -538.422304472608

DIPOLE MOMENT
-------------
                                X             Y             Z
Electronic contribution:     -1.86825      -5.27185      -0.73700
Nuclear contribution   :      2.94480       6.98372       0.58611
                        -----------------------------------------
Total Dipole Moment    :      1.07656       1.71187      -0.15089
                        -----------------------------------------
Magnitude (a.u.)       :      2.02787
Magnitude (Debye)      :      5.15443

Rotational constants in cm-1:     0.079389     0.020985     0.020454
Rotational constants in MHz :  2380.031117   629.107513   613.181108

                             ****ORCA TERMINATED NORMALLY****
TOTAL RUN TIME: 0 days 0 hours 7 minutes 12 seconds 865 msec
