                         Program Version 4.2.0 -  RELEASE  -
|  1> # Test redundant internal optimization
|  2> #
|  3> ! RKS B3LYP  Opt TightSCF SmallPrint
|  4>
|  5> %basis
|  6>         Basis "6-31G"
|  7> end
|  8>
|  9> %geom
| 10> Constraints
| 11> { D 4  0  15  12  45.0   C } # D for Dihedral angle
| 12> { D 0  15  12  16  240.0   C } # D for Dihedral angle
| 13> { D 0  4  3  2   C } # D for Dihedral angle
| 14> { D 4  3  2  1   C } # D for Dihedral angle
| 15> { D 3  2  1  0   C } # D for Dihedral angle
| 16> { D 2  1  0  4   C } # D for Dihedral angle
| 17> { D 1  0  4  3   C } # D for Dihedral angle
| 18> { D 16  20  19  18   C } # D for Dihedral angle
| 19> { D 20  19  18  17   C } # D for Dihedral angle
| 20> { D 19  18  17  16   C } # D for Dihedral angle
| 21> { D 18  17  16  20   C } # D for Dihedral angle
| 22> { D 17  16  20  19   C } # D for Dihedral angle
| 23> { D 15  12  16  20   C } # D for Dihedral angle
| 24> end
| 25> end
| 26>
| 27>
| 28> #%pal
| 29> #nprocs 8
| 30> #end
| 31>
| 32> * xyz 0 1
| 33> C  -21.048   26.222   46.251
| 34> C  -20.361   27.558   45.944
| 35> C  -20.329   28.222   47.341
| 36> C  -20.110   27.022   48.296
| 37> O  -20.473   25.807   47.535
| 38> H  -20.833   25.428   45.533
| 39> H  -19.344   27.382   45.576
| 40> H  -20.898   28.157   45.201
| 41> H  -19.543   28.978   47.434
| 42> H  -21.289   28.710   47.548
| 43> H  -20.733   27.082   49.195
| 44> H  -19.064   26.913   48.597
| 45> C  -23.065   27.161   47.638
| 46> H  -22.193   27.462   48.231
| 47> H  -23.613   28.068   47.351
| 48> O  -22.586   26.394   46.375
| 49> C  -24.000   26.309   48.540
| 50> C  -25.202   25.777   47.750
| 51> C  -24.576   24.576   47.000
| 52> C  -23.546   24.024   48.017
| 53> O  -23.307   25.102   49.001
| 54> H  -24.263   26.886   49.428
| 55> H  -25.983   25.437   48.439
| 56> O  -25.818   26.831   46.791
| 57> H  -25.318   23.825   46.708
| 58> H  -24.073   24.922   46.089
| 59> H  -22.596   23.750   47.545
| 60> H  -23.928   23.161   48.571
| 61> H  -25.052   27.185   46.092
| 62> *
| 63>
| 64>                          ****END OF INPUT****
 Total Charge           Charge          ....    0
 Multiplicity           Mult            ....    1
 Number of Electrons    NEL             ....  102
FINAL SINGLE POINT ENERGY      -652.815557114217
FINAL SINGLE POINT ENERGY      -652.842553720621
FINAL SINGLE POINT ENERGY      -652.854302918251
FINAL SINGLE POINT ENERGY      -652.856630052498
FINAL SINGLE POINT ENERGY      -652.856994864161
FINAL SINGLE POINT ENERGY      -652.857058209356
FINAL SINGLE POINT ENERGY      -652.857063199937
                    ***********************HURRAY********************

CARTESIAN COORDINATES (ANGSTROEM)
---------------------------------
  C    -21.122717   26.379377   46.399558
  C    -20.351478   27.633322   45.970603
  C    -20.040656   28.307554   47.336823
  C    -19.811584   27.091531   48.268698
  O    -20.420135   25.927327   47.572709
  H    -21.062103   25.569623   45.670416
  H    -19.425947   27.324514   45.472321
  H    -20.926053   28.266983   45.290652
  H    -19.160133   28.955784   47.290208
  H    -20.884368   28.920507   47.667934
  H    -20.277422   27.194670   49.252620
  H    -18.750440   26.859882   48.398651
  C    -23.160732   27.199882   47.708642
  H    -22.396325   27.538254   48.410711
  H    -23.724642   28.069506   47.350648
  O    -22.554173   26.542857   46.553987
  C    -24.104168   26.266952   48.471353
  C    -25.279908   25.718241   47.644470
  C    -24.635263   24.477012   46.951725
  C    -23.662363   23.957467   48.032141
  O    -23.457080   25.074951   48.989942
  H    -24.465550   26.830017   49.341037
  H    -26.095925   25.422995   48.307519
  O    -25.867000   26.676936   46.729886
  H    -25.383554   23.732919   46.663734
  H    -24.091749   24.811344   46.065162
  H    -22.689339   23.666907   47.629248
  H    -24.080837   23.124130   48.605440
  H    -25.262359   26.809558   45.970160

 Multiplicity           Mult            ....    1
 Number of Electrons    NEL             ....  102
 Basis Dimension        Dim             ....  149

ORBITAL ENERGIES
----------------

  NO   OCC          E(Eh)            E(eV)
   0   2.0000     -19.147691      -521.0352
   1   2.0000     -19.146848      -521.0122
   2   2.0000     -19.135185      -520.6948
   3   2.0000     -19.127238      -520.4786
   4   2.0000     -10.284060      -279.8435
   5   2.0000     -10.232996      -278.4540
   6   2.0000     -10.231300      -278.4078
   7   2.0000     -10.230598      -278.3887
   8   2.0000     -10.224777      -278.2303
   9   2.0000     -10.214726      -277.9568
  10   2.0000     -10.196253      -277.4541
  11   2.0000     -10.191969      -277.3376
  12   2.0000     -10.173945      -276.8471
  13   2.0000      -1.056098       -28.7379
  14   2.0000      -1.022378       -27.8203
  15   2.0000      -1.004851       -27.3434
  16   2.0000      -0.995721       -27.0949
  17   2.0000      -0.792042       -21.5526
  18   2.0000      -0.773203       -21.0399
  19   2.0000      -0.761971       -20.7343
  20   2.0000      -0.733272       -19.9534
  21   2.0000      -0.677363       -18.4320
  22   2.0000      -0.607276       -16.5248
  23   2.0000      -0.602571       -16.3968
  24   2.0000      -0.596104       -16.2208
  25   2.0000      -0.559912       -15.2360
  26   2.0000      -0.527072       -14.3424
  27   2.0000      -0.507909       -13.8209
  28   2.0000      -0.496049       -13.4982
  29   2.0000      -0.487789       -13.2734
  30   2.0000      -0.471749       -12.8369
  31   2.0000      -0.458842       -12.4857
  32   2.0000      -0.435757       -11.8575
  33   2.0000      -0.429362       -11.6835
  34   2.0000      -0.423359       -11.5202
  35   2.0000      -0.413913       -11.2631
  36   2.0000      -0.401722       -10.9314
  37   2.0000      -0.391781       -10.6609
  38   2.0000      -0.383659       -10.4399
  39   2.0000      -0.368615       -10.0305
  40   2.0000      -0.363478        -9.8907
  41   2.0000      -0.355446        -9.6722
  42   2.0000      -0.343749        -9.3539
  43   2.0000      -0.324060        -8.8181
  44   2.0000      -0.319053        -8.6819
  45   2.0000      -0.310601        -8.4519
  46   2.0000      -0.300797        -8.1851
  47   2.0000      -0.267265        -7.2727
  48   2.0000      -0.260459        -7.0874
  49   2.0000      -0.255759        -6.9596
  50   2.0000      -0.229525        -6.2457
  51   0.0000       0.064159         1.7458
  52   0.0000       0.086736         2.3602
  53   0.0000       0.093409         2.5418
  54   0.0000       0.096058         2.6139
  55   0.0000       0.107291         2.9195

MULLIKEN ATOMIC CHARGES
-----------------------
   0 C :    0.306557
   1 C :   -0.265613
   2 C :   -0.318051
   3 C :   -0.018500
   4 O :   -0.498892
   5 H :    0.160069
   6 H :    0.151951
   7 H :    0.151170
   8 H :    0.149059
   9 H :    0.150798
  10 H :    0.157255
  11 H :    0.150552
  12 C :   -0.028968
  13 H :    0.148959
  14 H :    0.144769
  15 O :   -0.547239
  16 C :    0.101808
  17 C :    0.083877
  18 C :   -0.309595
  19 C :   -0.004307
  20 O :   -0.516778
  21 H :    0.142460
  22 H :    0.159138
  23 O :   -0.609259
  24 H :    0.140903
  25 H :    0.162111
  26 H :    0.154667
  27 H :    0.137133
  28 H :    0.363965
Sum of atomic charges:    0.0000000

LOEWDIN ATOMIC CHARGES
----------------------
   0 C :    0.178829
   1 C :   -0.226839
   2 C :   -0.224728
   3 C :   -0.034534
   4 O :   -0.311624
   5 H :    0.109796
   6 H :    0.118797
   7 H :    0.120127
   8 H :    0.117740
   9 H :    0.110510
  10 H :    0.107311
  11 H :    0.106891
  12 C :   -0.048985
  13 H :    0.109030
  14 H :    0.106330
  15 O :   -0.340062
  16 C :    0.015303
  17 C :    0.036254
  18 C :   -0.242620
  19 C :   -0.024409
  20 O :   -0.319385
  21 H :    0.111111
  22 H :    0.114698
  23 O :   -0.413690
  24 H :    0.113365
  25 H :    0.120373
  26 H :    0.109149
  27 H :    0.098956
  28 H :    0.282304

  Mayer bond orders larger than 0.100000
B(  0-C ,  1-C ) :   0.9199 B(  0-C ,  4-O ) :   0.9177 B(  0-C ,  5-H ) :   0.9360
B(  0-C , 15-O ) :   0.8658 B(  1-C ,  2-C ) :   0.9544 B(  1-C ,  6-H ) :   0.9348
B(  1-C ,  7-H ) :   0.9377 B(  2-C ,  3-C ) :   0.9479 B(  2-C ,  8-H ) :   0.9445
B(  2-C ,  9-H ) :   0.9419 B(  3-C ,  4-O ) :   0.8362 B(  3-C , 10-H ) :   0.9286
B(  3-C , 11-H ) :   0.9382 B( 12-C , 13-H ) :   0.9163 B( 12-C , 14-H ) :   0.9159
B( 12-C , 15-O ) :   0.8314 B( 12-C , 16-C ) :   0.8933 B( 16-C , 17-C ) :   0.8885
B( 16-C , 20-O ) :   0.8891 B( 16-C , 21-H ) :   0.9254 B( 17-C , 18-C ) :   0.9347
B( 17-C , 22-H ) :   0.9368 B( 17-C , 23-O ) :   0.8984 B( 18-C , 19-C ) :   0.9452
B( 18-C , 24-H ) :   0.9411 B( 18-C , 25-H ) :   0.9268 B( 19-C , 20-O ) :   0.8354
B( 19-C , 26-H ) :   0.9300 B( 19-C , 27-H ) :   0.9384 B( 23-O , 28-H ) :   0.7933

FINAL SINGLE POINT ENERGY      -652.857062452214

DIPOLE MOMENT
-------------
                                X             Y             Z
Electronic contribution:     -2.83242      -2.18636       0.82826
Nuclear contribution   :      3.72635       2.88970      -1.35818
                        -----------------------------------------
Total Dipole Moment    :      0.89393       0.70335      -0.52992
                        -----------------------------------------
Magnitude (a.u.)       :      1.25484
Magnitude (Debye)      :      3.18955

Rotational constants in cm-1:     0.050010     0.016846     0.015337
Rotational constants in MHz :  1499.248571   505.026909   459.805554

                             ****ORCA TERMINATED NORMALLY****
TOTAL RUN TIME: 0 days 0 hours 32 minutes 5 seconds 669 msec
