                         Program Version 4.2.0 -  RELEASE  -
|  1> # Test redundant internal optimization
|  2> #
|  3> ! RKS B3LYP  Opt TightSCF SmallPrint
|  4>
|  5> %basis
|  6>         Basis "6-31G"
|  7> end
|  8>
|  9> %geom
| 10> Constraints
| 11> { D 4  0  15  12  105.0   C } # D for Dihedral angle
| 12> { D 0  15  12  16  105.0   C } # D for Dihedral angle
| 13> { D 0  4  3  2   C } # D for Dihedral angle
| 14> { D 4  3  2  1   C } # D for Dihedral angle
| 15> { D 3  2  1  0   C } # D for Dihedral angle
| 16> { D 2  1  0  4   C } # D for Dihedral angle
| 17> { D 1  0  4  3   C } # D for Dihedral angle
| 18> { D 16  20  19  18   C } # D for Dihedral angle
| 19> { D 20  19  18  17   C } # D for Dihedral angle
| 20> { D 19  18  17  16   C } # D for Dihedral angle
| 21> { D 18  17  16  20   C } # D for Dihedral angle
| 22> { D 17  16  20  19   C } # D for Dihedral angle
| 23> { D 15  12  16  20   C } # D for Dihedral angle
| 24> end
| 25> end
| 26>
| 27>
| 28> #%pal
| 29> #nprocs 8
| 30> #end
| 31>
| 32> * xyz 0 1
| 33> C  -21.048   26.222   46.251
| 34> C  -20.361   27.558   45.944
| 35> C  -20.329   28.222   47.341
| 36> C  -20.110   27.022   48.296
| 37> O  -20.473   25.807   47.535
| 38> H  -20.833   25.428   45.533
| 39> H  -19.344   27.382   45.576
| 40> H  -20.898   28.157   45.201
| 41> H  -19.543   28.978   47.434
| 42> H  -21.289   28.710   47.548
| 43> H  -20.733   27.082   49.195
| 44> H  -19.064   26.913   48.597
| 45> C  -23.085   27.864   46.420
| 46> H  -23.827   27.970   47.221
| 47> H  -22.251   28.546   46.633
| 48> O  -22.586   26.394   46.375
| 49> C  -23.738   28.318   45.086
| 50> C  -24.112   29.804   45.126
| 51> C  -22.745   30.479   44.865
| 52> C  -22.055   29.506   43.877
| 53> O  -22.775   28.219   43.984
| 54> H  -24.568   27.649   44.848
| 55> H  -24.819   30.037   44.321
| 56> O  -24.749   30.236   46.475
| 57> H  -22.842   31.490   44.456
| 58> H  -22.175   30.549   45.799
| 59> H  -20.998   29.346   44.116
| 60> H  -22.138   29.837   42.838
| 61> H  -24.060   30.014   47.297
| 62> *
| 63>
| 64>                          ****END OF INPUT****
 Total Charge           Charge          ....    0
 Multiplicity           Mult            ....    1
 Number of Electrons    NEL             ....  102
FINAL SINGLE POINT ENERGY      -652.794285636957
FINAL SINGLE POINT ENERGY      -652.827241383994
FINAL SINGLE POINT ENERGY      -652.844593726577
FINAL SINGLE POINT ENERGY      -652.847595653246
FINAL SINGLE POINT ENERGY      -652.848051679408
FINAL SINGLE POINT ENERGY      -652.848177440756
FINAL SINGLE POINT ENERGY      -652.848189683898
FINAL SINGLE POINT ENERGY      -652.848191202898
                    ***********************HURRAY********************

CARTESIAN COORDINATES (ANGSTROEM)
---------------------------------
  C    -21.132989   26.287211   46.370989
  C    -20.111665   27.380230   46.028987
  C    -19.865750   28.043246   47.415273
  C    -19.967021   26.835216   48.382110
  O    -20.666432   25.767612   47.637171
  H    -21.104344   25.438342   45.687182
  H    -19.197083   26.893070   45.676022
  H    -20.466017   28.057803   45.252376
  H    -18.887081   28.530549   47.473815
  H    -20.622717   28.799352   47.643389
  H    -20.525790   27.062483   49.295241
  H    -18.983802   26.441674   48.656573
  C    -23.102284   27.958054   46.464455
  H    -23.925482   27.909731   47.185249
  H    -22.375954   28.698938   46.817904
  O    -22.536504   26.625208   46.401366
  C    -23.665572   28.354387   45.097653
  C    -24.295982   29.756894   45.025850
  C    -23.050280   30.652133   44.757852
  C    -22.168360   29.757450   43.861576
  O    -22.659509   28.362587   44.034928
  H    -24.377789   27.576632   44.806628
  H    -24.986599   29.800612   44.181162
  O    -25.096793   30.142284   46.168283
  H    -23.315372   31.600857   44.284264
  H    -22.552170   30.879959   45.710306
  H    -21.106731   29.803317   44.127132
  H    -22.273514   29.998872   42.799757
  H    -24.528415   30.324298   46.944509

 Multiplicity           Mult            ....    1
 Number of Electrons    NEL             ....  102
 Basis Dimension        Dim             ....  149

ORBITAL ENERGIES
----------------

  NO   OCC          E(Eh)            E(eV)
   0   2.0000     -19.155143      -521.2379
   1   2.0000     -19.147741      -521.0365
   2   2.0000     -19.136090      -520.7195
   3   2.0000     -19.133822      -520.6578
   4   2.0000     -10.274311      -279.5782
   5   2.0000     -10.250629      -278.9338
   6   2.0000     -10.239265      -278.6246
   7   2.0000     -10.235184      -278.5135
   8   2.0000     -10.232609      -278.4434
   9   2.0000     -10.225594      -278.2526
  10   2.0000     -10.202174      -277.6153
  11   2.0000     -10.193819      -277.3879
  12   2.0000     -10.187493      -277.2158
  13   2.0000      -1.046695       -28.4820
  14   2.0000      -1.038088       -28.2478
  15   2.0000      -1.021945       -27.8085
  16   2.0000      -0.990450       -26.9515
  17   2.0000      -0.789506       -21.4836
  18   2.0000      -0.786565       -21.4035
  19   2.0000      -0.774786       -21.0830
  20   2.0000      -0.732947       -19.9445
  21   2.0000      -0.688437       -18.7333
  22   2.0000      -0.618225       -16.8228
  23   2.0000      -0.603535       -16.4230
  24   2.0000      -0.600400       -16.3377
  25   2.0000      -0.570481       -15.5236
  26   2.0000      -0.531182       -14.4542
  27   2.0000      -0.515097       -14.0165
  28   2.0000      -0.506164       -13.7734
  29   2.0000      -0.490056       -13.3351
  30   2.0000      -0.469398       -12.7730
  31   2.0000      -0.462094       -12.5742
  32   2.0000      -0.451579       -12.2881
  33   2.0000      -0.438648       -11.9362
  34   2.0000      -0.430517       -11.7150
  35   2.0000      -0.423408       -11.5215
  36   2.0000      -0.411634       -11.2011
  37   2.0000      -0.403632       -10.9834
  38   2.0000      -0.385391       -10.4870
  39   2.0000      -0.379724       -10.3328
  40   2.0000      -0.360954        -9.8221
  41   2.0000      -0.358224        -9.7478
  42   2.0000      -0.348710        -9.4889
  43   2.0000      -0.338630        -9.2146
  44   2.0000      -0.321018        -8.7353
  45   2.0000      -0.310311        -8.4440
  46   2.0000      -0.287068        -7.8115
  47   2.0000      -0.275780        -7.5044
  48   2.0000      -0.271117        -7.3775
  49   2.0000      -0.254938        -6.9372
  50   2.0000      -0.238848        -6.4994
  51   0.0000       0.041606         1.1322
  52   0.0000       0.058286         1.5860
  53   0.0000       0.082735         2.2513
  54   0.0000       0.089593         2.4380
  55   0.0000       0.098301         2.6749

MULLIKEN ATOMIC CHARGES
-----------------------
   0 C :    0.319965
   1 C :   -0.308783
   2 C :   -0.314687
   3 C :   -0.002758
   4 O :   -0.497265
   5 H :    0.167675
   6 H :    0.155510
   7 H :    0.172252
   8 H :    0.142912
   9 H :    0.139890
  10 H :    0.142792
  11 H :    0.144858
  12 C :   -0.021839
  13 H :    0.159578
  14 H :    0.108750
  15 O :   -0.522801
  16 C :    0.096378
  17 C :    0.082089
  18 C :   -0.317903
  19 C :   -0.020529
  20 O :   -0.510946
  21 H :    0.170275
  22 H :    0.172067
  23 O :   -0.596885
  24 H :    0.159666
  25 H :    0.130165
  26 H :    0.136679
  27 H :    0.157463
  28 H :    0.355432
Sum of atomic charges:   -0.0000000

LOEWDIN ATOMIC CHARGES
----------------------
   0 C :    0.184756
   1 C :   -0.233613
   2 C :   -0.224257
   3 C :   -0.031931
   4 O :   -0.318050
   5 H :    0.113296
   6 H :    0.123655
   7 H :    0.126054
   8 H :    0.114248
   9 H :    0.101708
  10 H :    0.102052
  11 H :    0.103404
  12 C :   -0.047582
  13 H :    0.116945
  14 H :    0.085516
  15 O :   -0.317215
  16 C :    0.011755
  17 C :    0.034754
  18 C :   -0.240596
  19 C :   -0.034217
  20 O :   -0.319851
  21 H :    0.121939
  22 H :    0.121639
  23 O :   -0.404840
  24 H :    0.124350
  25 H :    0.102426
  26 H :    0.096681
  27 H :    0.109235
  28 H :    0.277743

  Mayer bond orders larger than 0.100000
B(  0-C ,  1-C ) :   0.9281 B(  0-C ,  4-O ) :   0.9038 B(  0-C ,  5-H ) :   0.9336
B(  0-C , 15-O ) :   0.8819 B(  1-C ,  2-C ) :   0.9515 B(  1-C ,  6-H ) :   0.9353
B(  1-C ,  7-H ) :   0.9119 B(  2-C ,  3-C ) :   0.9464 B(  2-C ,  8-H ) :   0.9456
B(  2-C ,  9-H ) :   0.9383 B(  3-C ,  4-O ) :   0.8536 B(  3-C , 10-H ) :   0.9346
B(  3-C , 11-H ) :   0.9389 B( 12-C , 13-H ) :   0.9188 B( 12-C , 14-H ) :   0.9073
B( 12-C , 15-O ) :   0.8594 B( 12-C , 16-C ) :   0.8934 B( 16-C , 17-C ) :   0.8680
B( 16-C , 20-O ) :   0.8626 B( 16-C , 21-H ) :   0.9285 B( 17-C , 18-C ) :   0.9206
B( 17-C , 22-H ) :   0.9319 B( 17-C , 23-O ) :   0.9014 B( 18-C , 19-C ) :   0.9394
B( 18-C , 24-H ) :   0.9418 B( 18-C , 25-H ) :   0.9417 B( 19-C , 20-O ) :   0.8467
B( 19-C , 26-H ) :   0.9238 B( 19-C , 27-H ) :   0.9381 B( 23-O , 28-H ) :   0.7984

FINAL SINGLE POINT ENERGY      -652.848189887260

DIPOLE MOMENT
-------------
                                X             Y             Z
Electronic contribution:     -4.49761      -5.07029      -0.68586
Nuclear contribution   :      5.50750       6.90423       0.73066
                        -----------------------------------------
Total Dipole Moment    :      1.00989       1.83393       0.04481
                        -----------------------------------------
Magnitude (a.u.)       :      2.09409
Magnitude (Debye)      :      5.32274

Rotational constants in cm-1:     0.048750     0.015051     0.014253
Rotational constants in MHz :  1461.477317   451.227978   427.302833

                             ****ORCA TERMINATED NORMALLY****
TOTAL RUN TIME: 0 days 1 hours 7 minutes 47 seconds 278 msec
