                         Program Version 4.2.0 -  RELEASE  -
|  1> # Test redundant internal optimization
|  2> #
|  3> ! RKS B3LYP  Opt TightSCF SmallPrint
|  4>
|  5> %basis
|  6>         Basis "6-31G"
|  7> end
|  8>
|  9> %geom
| 10> Constraints
| 11> { D 4  0  15  12  210.0   C } # D for Dihedral angle
| 12> { D 0  15  12  16  315.0   C } # D for Dihedral angle
| 13> { D 0  4  3  2   C } # D for Dihedral angle
| 14> { D 4  3  2  1   C } # D for Dihedral angle
| 15> { D 3  2  1  0   C } # D for Dihedral angle
| 16> { D 2  1  0  4   C } # D for Dihedral angle
| 17> { D 1  0  4  3   C } # D for Dihedral angle
| 18> { D 16  20  19  18   C } # D for Dihedral angle
| 19> { D 20  19  18  17   C } # D for Dihedral angle
| 20> { D 19  18  17  16   C } # D for Dihedral angle
| 21> { D 18  17  16  20   C } # D for Dihedral angle
| 22> { D 17  16  20  19   C } # D for Dihedral angle
| 23> { D 15  12  16  20   C } # D for Dihedral angle
| 24> end
| 25> end
| 26>
| 27>
| 28> #%pal
| 29> #nprocs 8
| 30> #end
| 31>
| 32> * xyz 0 1
| 33> C  -21.048   26.222   46.251
| 34> C  -20.361   27.558   45.944
| 35> C  -20.329   28.222   47.341
| 36> C  -20.110   27.022   48.296
| 37> O  -20.473   25.807   47.535
| 38> H  -20.833   25.428   45.533
| 39> H  -19.344   27.382   45.576
| 40> H  -20.898   28.157   45.201
| 41> H  -19.543   28.978   47.434
| 42> H  -21.289   28.710   47.548
| 43> H  -20.733   27.082   49.195
| 44> H  -19.064   26.913   48.597
| 45> C  -23.389   26.110   45.076
| 46> H  -23.442   25.027   44.912
| 47> H  -24.414   26.494   45.167
| 48> O  -22.586   26.394   46.375
| 49> C  -22.749   26.763   43.820
| 50> C  -23.627   26.562   42.580
| 51> C  -24.711   27.647   42.782
| 52> C  -23.926   28.807   43.445
| 53> O  -22.679   28.220   43.979
| 54> H  -21.724   26.403   43.712
| 55> O  -22.804   26.842   41.292
| 56> H  -24.045   25.552   42.509
| 57> H  -25.189   27.949   41.845
| 58> H  -25.494   27.277   43.454
| 59> H  -24.483   29.274   44.266
| 60> H  -23.638   29.580   42.727
| 61> H  -22.375   27.849   41.342
| 62> *
| 63>
| 64>                          ****END OF INPUT****
 Total Charge           Charge          ....    0
 Multiplicity           Mult            ....    1
 Number of Electrons    NEL             ....  102
FINAL SINGLE POINT ENERGY      -652.830341422952
FINAL SINGLE POINT ENERGY      -652.853281307203
FINAL SINGLE POINT ENERGY      -652.857541115578
FINAL SINGLE POINT ENERGY      -652.858206284752
FINAL SINGLE POINT ENERGY      -652.858323921889
FINAL SINGLE POINT ENERGY      -652.858335090804
                    ***********************HURRAY********************

CARTESIAN COORDINATES (ANGSTROEM)
---------------------------------
  C    -20.979264   26.238277   46.178568
  C    -20.298954   27.590393   45.974510
  C    -20.382617   28.207437   47.390722
  C    -20.213991   26.980926   48.311904
  O    -20.503340   25.796806   47.461337
  H    -20.719452   25.458122   45.454411
  H    -19.253263   27.424132   45.685639
  H    -20.790534   28.203586   45.218196
  H    -19.616921   28.969568   47.563428
  H    -21.367156   28.663488   47.531164
  H    -20.904227   26.976788   49.159268
  H    -19.189494   26.859869   48.677092
  C    -23.228512   26.164355   45.080894
  H    -23.318296   25.080121   44.896484
  H    -24.216089   26.547048   45.350941
  O    -22.427953   26.380815   46.271866
  C    -22.735483   26.809426   43.779659
  C    -23.687785   26.569560   42.597853
  C    -24.754474   27.675487   42.820139
  C    -23.922305   28.852335   43.392040
  O    -22.646401   28.270063   43.877306
  H    -21.730890   26.454761   43.531778
  O    -22.995253   26.729938   41.330459
  H    -24.107743   25.563771   42.566514
  H    -25.255199   27.922927   41.881086
  H    -25.510565   27.337003   43.536162
  H    -24.419819   29.357799   44.224578
  H    -23.667503   29.597291   42.631840
  H    -22.456518   27.548906   41.358164

 Multiplicity           Mult            ....    1
 Number of Electrons    NEL             ....  102
 Basis Dimension        Dim             ....  149

ORBITAL ENERGIES
----------------

  NO   OCC          E(Eh)            E(eV)
   0   2.0000     -19.154011      -521.2071
   1   2.0000     -19.147857      -521.0397
   2   2.0000     -19.135448      -520.7020
   3   2.0000     -19.131697      -520.5999
   4   2.0000     -10.272678      -279.5338
   5   2.0000     -10.252175      -278.9759
   6   2.0000     -10.244009      -278.7537
   7   2.0000     -10.240707      -278.6638
   8   2.0000     -10.235610      -278.5251
   9   2.0000     -10.216299      -277.9996
  10   2.0000     -10.198769      -277.5226
  11   2.0000     -10.175545      -276.8906
  12   2.0000     -10.170075      -276.7418
  13   2.0000      -1.049909       -28.5695
  14   2.0000      -1.042005       -28.3544
  15   2.0000      -1.015808       -27.6415
  16   2.0000      -0.987300       -26.8658
  17   2.0000      -0.793545       -21.5934
  18   2.0000      -0.775421       -21.1003
  19   2.0000      -0.771881       -21.0040
  20   2.0000      -0.730271       -19.8717
  21   2.0000      -0.676384       -18.4053
  22   2.0000      -0.614528       -16.7222
  23   2.0000      -0.608956       -16.5705
  24   2.0000      -0.589033       -16.0284
  25   2.0000      -0.569570       -15.4988
  26   2.0000      -0.532103       -14.4793
  27   2.0000      -0.515825       -14.0363
  28   2.0000      -0.491156       -13.3650
  29   2.0000      -0.489903       -13.3309
  30   2.0000      -0.472223       -12.8498
  31   2.0000      -0.455438       -12.3931
  32   2.0000      -0.453312       -12.3352
  33   2.0000      -0.447862       -12.1869
  34   2.0000      -0.421469       -11.4688
  35   2.0000      -0.416059       -11.3216
  36   2.0000      -0.404840       -11.0162
  37   2.0000      -0.393699       -10.7131
  38   2.0000      -0.381963       -10.3937
  39   2.0000      -0.370819       -10.0905
  40   2.0000      -0.360660        -9.8141
  41   2.0000      -0.353278        -9.6132
  42   2.0000      -0.344479        -9.3737
  43   2.0000      -0.335043        -9.1170
  44   2.0000      -0.320196        -8.7130
  45   2.0000      -0.306561        -8.3419
  46   2.0000      -0.300287        -8.1712
  47   2.0000      -0.281515        -7.6604
  48   2.0000      -0.262650        -7.1471
  49   2.0000      -0.250283        -6.8106
  50   2.0000      -0.239456        -6.5159
  51   0.0000       0.056276         1.5314
  52   0.0000       0.083024         2.2592
  53   0.0000       0.087164         2.3718
  54   0.0000       0.090527         2.4634
  55   0.0000       0.096053         2.6137

MULLIKEN ATOMIC CHARGES
-----------------------
   0 C :    0.284521
   1 C :   -0.281312
   2 C :   -0.299768
   3 C :   -0.000713
   4 O :   -0.507117
   5 H :    0.134603
   6 H :    0.132180
   7 H :    0.193878
   8 H :    0.137059
   9 H :    0.160757
  10 H :    0.150205
  11 H :    0.137285
  12 C :    0.008783
  13 H :    0.129518
  14 H :    0.148336
  15 O :   -0.506312
  16 C :    0.040041
  17 C :    0.082309
  18 C :   -0.300099
  19 C :   -0.028924
  20 O :   -0.522296
  21 H :    0.163811
  22 O :   -0.599882
  23 H :    0.156717
  24 H :    0.166065
  25 H :    0.150781
  26 H :    0.155187
  27 H :    0.149714
  28 H :    0.364672
Sum of atomic charges:   -0.0000000

LOEWDIN ATOMIC CHARGES
----------------------
   0 C :    0.177398
   1 C :   -0.236239
   2 C :   -0.215770
   3 C :   -0.026098
   4 O :   -0.308703
   5 H :    0.093025
   6 H :    0.107876
   7 H :    0.136437
   8 H :    0.112138
   9 H :    0.118518
  10 H :    0.106969
  11 H :    0.100044
  12 C :   -0.039621
  13 H :    0.095724
  14 H :    0.113248
  15 O :   -0.326994
  16 C :   -0.002180
  17 C :    0.039222
  18 C :   -0.240002
  19 C :   -0.037194
  20 O :   -0.329079
  21 H :    0.114229
  22 O :   -0.412061
  23 H :    0.118082
  24 H :    0.128450
  25 H :    0.116091
  26 H :    0.108880
  27 H :    0.104131
  28 H :    0.283477

  Mayer bond orders larger than 0.100000
B(  0-C ,  1-C ) :   0.9325 B(  0-C ,  4-O ) :   0.9327 B(  0-C ,  5-H ) :   0.9190
B(  0-C , 15-O ) :   0.8261 B(  1-C ,  2-C ) :   0.9545 B(  1-C ,  6-H ) :   0.9344
B(  1-C ,  7-H ) :   0.9062 B(  2-C ,  3-C ) :   0.9556 B(  2-C ,  8-H ) :   0.9456
B(  2-C ,  9-H ) :   0.9437 B(  3-C ,  4-O ) :   0.8364 B(  3-C , 10-H ) :   0.9353
B(  3-C , 11-H ) :   0.9401 B( 12-C , 13-H ) :   0.9068 B( 12-C , 14-H ) :   0.9370
B( 12-C , 15-O ) :   0.8760 B( 12-C , 16-C ) :   0.8822 B( 16-C , 17-C ) :   0.8953
B( 16-C , 20-O ) :   0.8381 B( 16-C , 21-H ) :   0.9208 B( 17-C , 18-C ) :   0.9126
B( 17-C , 22-O ) :   0.8936 B( 17-C , 23-H ) :   0.9328 B( 18-C , 19-C ) :   0.9399
B( 18-C , 24-H ) :   0.9367 B( 18-C , 25-H ) :   0.9330 B( 19-C , 20-O ) :   0.8378
B( 19-C , 26-H ) :   0.9342 B( 19-C , 27-H ) :   0.9371 B( 22-O , 28-H ) :   0.7948

FINAL SINGLE POINT ENERGY      -652.858335477738

DIPOLE MOMENT
-------------
                                X             Y             Z
Electronic contribution:      0.52768      -3.22080      -0.71463
Nuclear contribution   :     -1.03457       4.14811       0.20605
                        -----------------------------------------
Total Dipole Moment    :     -0.50689       0.92731      -0.50857
                        -----------------------------------------
Magnitude (a.u.)       :      1.17281
Magnitude (Debye)      :      2.98106

Rotational constants in cm-1:     0.061967     0.013092     0.012550
Rotational constants in MHz :  1857.734768   392.482782   376.249986

                             ****ORCA TERMINATED NORMALLY****
TOTAL RUN TIME: 0 days 0 hours 23 minutes 40 seconds 86 msec
