                         Program Version 4.2.0 -  RELEASE  -
|  1> # Test redundant internal optimization
|  2> #
|  3> ! RKS B3LYP  Opt TightSCF SmallPrint
|  4>
|  5> %basis
|  6>         Basis "6-31G"
|  7> end
|  8>
|  9> %geom
| 10> Constraints
| 11> { D 4  0  15  12  270.0   C } # D for Dihedral angle
| 12> { D 0  15  12  16  210.0   C } # D for Dihedral angle
| 13> { D 0  4  3  2   C } # D for Dihedral angle
| 14> { D 4  3  2  1   C } # D for Dihedral angle
| 15> { D 3  2  1  0   C } # D for Dihedral angle
| 16> { D 2  1  0  4   C } # D for Dihedral angle
| 17> { D 1  0  4  3   C } # D for Dihedral angle
| 18> { D 16  20  19  18   C } # D for Dihedral angle
| 19> { D 20  19  18  17   C } # D for Dihedral angle
| 20> { D 19  18  17  16   C } # D for Dihedral angle
| 21> { D 18  17  16  20   C } # D for Dihedral angle
| 22> { D 17  16  20  19   C } # D for Dihedral angle
| 23> { D 15  12  16  20   C } # D for Dihedral angle
| 24> end
| 25> end
| 26>
| 27>
| 28> #%pal
| 29> #nprocs 8
| 30> #end
| 31>
| 32> * xyz 0 1
| 33> C  -21.048   26.222   46.251
| 34> C  -20.361   27.558   45.944
| 35> C  -20.329   28.222   47.341
| 36> C  -20.110   27.022   48.296
| 37> O  -20.473   25.807   47.535
| 38> H  -20.833   25.428   45.533
| 39> H  -19.344   27.382   45.576
| 40> H  -20.898   28.157   45.201
| 41> H  -19.543   28.978   47.434
| 42> H  -21.289   28.710   47.548
| 43> H  -20.733   27.082   49.195
| 44> H  -19.064   26.913   48.597
| 45> C  -23.420   25.119   46.072
| 46> H  -22.879   24.497   45.348
| 47> H  -23.567   24.530   46.987
| 48> O  -22.586   26.394   46.375
| 49> C  -24.822   25.443   45.487
| 50> C  -25.605   26.387   46.408
| 51> C  -24.974   27.757   46.062
| 52> C  -24.673   27.633   44.547
| 53> O  -24.694   26.188   44.231
| 54> H  -25.337   24.509   45.255
| 55> H  -26.668   26.373   46.144
| 56> O  -25.469   26.025   47.912
| 57> H  -25.636   28.599   46.288
| 58> H  -24.046   27.898   46.629
| 59> H  -23.696   28.046   44.278
| 60> H  -25.441   28.108   43.929
| 61> H  -24.411   26.032   48.198
| 62> *
| 63>
| 64>                          ****END OF INPUT****
 Total Charge           Charge          ....    0
 Multiplicity           Mult            ....    1
 Number of Electrons    NEL             ....  102
FINAL SINGLE POINT ENERGY      -652.837295961014
FINAL SINGLE POINT ENERGY      -652.860945593248
FINAL SINGLE POINT ENERGY      -652.865549949077
FINAL SINGLE POINT ENERGY      -652.866822157642
FINAL SINGLE POINT ENERGY      -652.866928207081
FINAL SINGLE POINT ENERGY      -652.866945787459
                    ***********************HURRAY********************

CARTESIAN COORDINATES (ANGSTROEM)
---------------------------------
  C    -21.054587   26.144520   46.240776
  C    -20.438445   27.511178   45.938587
  C    -20.416042   28.167459   47.340044
  C    -20.126140   26.972711   48.276917
  O    -20.449181   25.754185   47.493989
  H    -20.827618   25.352034   45.521530
  H    -19.420739   27.369036   45.557749
  H    -21.017647   28.071930   45.202526
  H    -19.660324   28.954267   47.425179
  H    -21.394038   28.606103   47.560667
  H    -20.734601   26.980952   49.184973
  H    -19.070281   26.896937   48.552879
  C    -23.297823   25.123244   46.097676
  H    -22.782198   24.486180   45.366069
  H    -23.431716   24.547631   47.022673
  O    -22.484411   26.308168   46.356074
  C    -24.660706   25.502395   45.530401
  C    -25.526841   26.400827   46.431266
  C    -25.006231   27.823479   46.062164
  C    -24.690369   27.687659   44.557480
  O    -24.590427   26.232502   44.272439
  H    -25.176733   24.559754   45.309130
  H    -26.580657   26.284435   46.169352
  O    -25.454473   26.081798   47.841049
  H    -25.750085   28.598501   46.269710
  H    -24.099033   28.028882   46.635060
  H    -23.746459   28.165324   44.278980
  H    -25.491663   28.079205   43.922880
  H    -24.569533   26.327706   48.182778

 Multiplicity           Mult            ....    1
 Number of Electrons    NEL             ....  102
 Basis Dimension        Dim             ....  149

ORBITAL ENERGIES
----------------

  NO   OCC          E(Eh)            E(eV)
   0   2.0000     -19.153122      -521.1830
   1   2.0000     -19.143380      -520.9179
   2   2.0000     -19.138831      -520.7941
   3   2.0000     -19.134352      -520.6722
   4   2.0000     -10.284666      -279.8600
   5   2.0000     -10.236405      -278.5467
   6   2.0000     -10.232262      -278.4340
   7   2.0000     -10.230790      -278.3939
   8   2.0000     -10.229756      -278.3658
   9   2.0000     -10.223137      -278.1857
  10   2.0000     -10.191277      -277.3187
  11   2.0000     -10.190212      -277.2898
  12   2.0000     -10.179917      -277.0096
  13   2.0000      -1.059511       -28.8308
  14   2.0000      -1.027015       -27.9465
  15   2.0000      -1.009564       -27.4716
  16   2.0000      -0.998886       -27.1811
  17   2.0000      -0.792871       -21.5751
  18   2.0000      -0.773011       -21.0347
  19   2.0000      -0.766413       -20.8552
  20   2.0000      -0.733654       -19.9637
  21   2.0000      -0.678250       -18.4561
  22   2.0000      -0.603905       -16.4331
  23   2.0000      -0.601968       -16.3804
  24   2.0000      -0.596944       -16.2437
  25   2.0000      -0.575641       -15.6640
  26   2.0000      -0.527871       -14.3641
  27   2.0000      -0.509496       -13.8641
  28   2.0000      -0.498065       -13.5530
  29   2.0000      -0.490718       -13.3531
  30   2.0000      -0.469162       -12.7666
  31   2.0000      -0.464470       -12.6389
  32   2.0000      -0.442271       -12.0348
  33   2.0000      -0.430006       -11.7010
  34   2.0000      -0.421070       -11.4579
  35   2.0000      -0.418319       -11.3830
  36   2.0000      -0.404536       -11.0080
  37   2.0000      -0.396469       -10.7885
  38   2.0000      -0.384963       -10.4754
  39   2.0000      -0.366427        -9.9710
  40   2.0000      -0.361790        -9.8448
  41   2.0000      -0.353672        -9.6239
  42   2.0000      -0.347828        -9.4649
  43   2.0000      -0.332858        -9.0575
  44   2.0000      -0.321764        -8.7557
  45   2.0000      -0.310772        -8.4565
  46   2.0000      -0.304551        -8.2873
  47   2.0000      -0.276958        -7.5364
  48   2.0000      -0.262316        -7.1380
  49   2.0000      -0.256402        -6.9771
  50   2.0000      -0.239003        -6.5036
  51   0.0000       0.061470         1.6727
  52   0.0000       0.075337         2.0500
  53   0.0000       0.086479         2.3532
  54   0.0000       0.097568         2.6550
  55   0.0000       0.106361         2.8942

MULLIKEN ATOMIC CHARGES
-----------------------
   0 C :    0.292464
   1 C :   -0.261984
   2 C :   -0.303021
   3 C :   -0.002716
   4 O :   -0.507992
   5 H :    0.148480
   6 H :    0.149200
   7 H :    0.155749
   8 H :    0.144825
   9 H :    0.156200
  10 H :    0.145568
  11 H :    0.145421
  12 C :   -0.018943
  13 H :    0.144935
  14 H :    0.151886
  15 O :   -0.538254
  16 C :    0.089424
  17 C :    0.087060
  18 C :   -0.316334
  19 C :   -0.003446
  20 O :   -0.521521
  21 H :    0.150601
  22 H :    0.162578
  23 O :   -0.607387
  24 H :    0.143984
  25 H :    0.165885
  26 H :    0.139032
  27 H :    0.142915
  28 H :    0.365389
Sum of atomic charges:   -0.0000000

LOEWDIN ATOMIC CHARGES
----------------------
   0 C :    0.175426
   1 C :   -0.216169
   2 C :   -0.216920
   3 C :   -0.027846
   4 O :   -0.326143
   5 H :    0.101110
   6 H :    0.116436
   7 H :    0.121942
   8 H :    0.115202
   9 H :    0.114345
  10 H :    0.104506
  11 H :    0.104141
  12 C :   -0.045405
  13 H :    0.106052
  14 H :    0.107098
  15 O :   -0.336088
  16 C :    0.016411
  17 C :    0.037911
  18 C :   -0.244165
  19 C :   -0.024776
  20 O :   -0.323942
  21 H :    0.115318
  22 H :    0.116391
  23 O :   -0.410978
  24 H :    0.115034
  25 H :    0.120204
  26 H :    0.100503
  27 H :    0.101238
  28 H :    0.283164

  Mayer bond orders larger than 0.100000
B(  0-C ,  1-C ) :   0.9478 B(  0-C ,  4-O ) :   0.9177 B(  0-C ,  5-H ) :   0.9166
B(  0-C , 15-O ) :   0.8474 B(  1-C ,  2-C ) :   0.9566 B(  1-C ,  6-H ) :   0.9387
B(  1-C ,  7-H ) :   0.9353 B(  2-C ,  3-C ) :   0.9534 B(  2-C ,  8-H ) :   0.9449
B(  2-C ,  9-H ) :   0.9447 B(  3-C ,  4-O ) :   0.8393 B(  3-C , 10-H ) :   0.9358
B(  3-C , 11-H ) :   0.9399 B( 12-C , 13-H ) :   0.9208 B( 12-C , 14-H ) :   0.9067
B( 12-C , 15-O ) :   0.8265 B( 12-C , 16-C ) :   0.9095 B( 16-C , 17-C ) :   0.8890
B( 16-C , 20-O ) :   0.8782 B( 16-C , 21-H ) :   0.9266 B( 17-C , 18-C ) :   0.9319
B( 17-C , 22-H ) :   0.9359 B( 17-C , 23-O ) :   0.9035 B( 18-C , 19-C ) :   0.9457
B( 18-C , 24-H ) :   0.9411 B( 18-C , 25-H ) :   0.9267 B( 19-C , 20-O ) :   0.8389
B( 19-C , 26-H ) :   0.9319 B( 19-C , 27-H ) :   0.9370 B( 23-O , 28-H ) :   0.7916

FINAL SINGLE POINT ENERGY      -652.866946454588

DIPOLE MOMENT
-------------
                                X             Y             Z
Electronic contribution:     -2.41520      -4.66771      -0.44330
Nuclear contribution   :      3.16588       5.59775       0.41729
                        -----------------------------------------
Total Dipole Moment    :      0.75068       0.93004      -0.02601
                        -----------------------------------------
Magnitude (a.u.)       :      1.19548
Magnitude (Debye)      :      3.03867

Rotational constants in cm-1:     0.045328     0.015883     0.015079
Rotational constants in MHz :  1358.898720   476.145718   452.051316

                             ****ORCA TERMINATED NORMALLY****
TOTAL RUN TIME: 0 days 0 hours 35 minutes 4 seconds 152 msec
