                         Program Version 4.2.0 -  RELEASE  -
|  1> # Test redundant internal optimization
|  2> #
|  3> ! RKS B3LYP  Opt TightSCF SmallPrint
|  4>
|  5> %basis
|  6>         Basis "6-31G"
|  7> end
|  8>
|  9> %geom
| 10> Constraints
| 11> { D 4  0  15  12  165.0   C } # D for Dihedral angle
| 12> { D 0  15  12  16  105.0   C } # D for Dihedral angle
| 13> { D 0  4  3  2   C } # D for Dihedral angle
| 14> { D 4  3  2  1   C } # D for Dihedral angle
| 15> { D 3  2  1  0   C } # D for Dihedral angle
| 16> { D 2  1  0  4   C } # D for Dihedral angle
| 17> { D 1  0  4  3   C } # D for Dihedral angle
| 18> { D 16  20  19  18   C } # D for Dihedral angle
| 19> { D 20  19  18  17   C } # D for Dihedral angle
| 20> { D 19  18  17  16   C } # D for Dihedral angle
| 21> { D 18  17  16  20   C } # D for Dihedral angle
| 22> { D 17  16  20  19   C } # D for Dihedral angle
| 23> { D 15  12  16  20   C } # D for Dihedral angle
| 24> end
| 25> end
| 26>
| 27>
| 28> #%pal
| 29> #nprocs 8
| 30> #end
| 31>
| 32> * xyz 0 1
| 33> C  -21.048   26.222   46.251
| 34> C  -20.361   27.558   45.944
| 35> C  -20.329   28.222   47.341
| 36> C  -20.110   27.022   48.296
| 37> O  -20.473   25.807   47.535
| 38> H  -20.833   25.428   45.533
| 39> H  -19.344   27.382   45.576
| 40> H  -20.898   28.157   45.201
| 41> H  -19.543   28.978   47.434
| 42> H  -21.289   28.710   47.548
| 43> H  -20.733   27.082   49.195
| 44> H  -19.064   26.913   48.597
| 45> C  -23.260   27.170   45.210
| 46> H  -23.963   27.904   45.623
| 47> H  -22.507   27.710   44.622
| 48> O  -22.586   26.394   46.375
| 49> C  -24.039   26.240   44.240
| 50> C  -25.224   25.569   44.943
| 51> C  -26.274   26.706   44.941
| 52> C  -26.007   27.428   43.596
| 53> O  -24.653   27.022   43.162
| 54> H  -23.339   25.545   43.772
| 55> H  -25.578   24.716   44.353
| 56> O  -24.882   25.068   46.373
| 57> H  -27.301   26.336   45.020
| 58> H  -26.096   27.383   45.786
| 59> H  -26.041   28.519   43.692
| 60> H  -26.704   27.120   42.812
| 61> H  -24.526   25.906   46.981
| 62> *
| 63>
| 64>                          ****END OF INPUT****
 Total Charge           Charge          ....    0
 Multiplicity           Mult            ....    1
 Number of Electrons    NEL             ....  102
FINAL SINGLE POINT ENERGY      -652.824474336248
FINAL SINGLE POINT ENERGY      -652.849307405787
FINAL SINGLE POINT ENERGY      -652.856319982382
FINAL SINGLE POINT ENERGY      -652.858849459689
FINAL SINGLE POINT ENERGY      -652.860298782211
FINAL SINGLE POINT ENERGY      -652.861194399553
FINAL SINGLE POINT ENERGY      -652.861573587006
FINAL SINGLE POINT ENERGY      -652.861671491306
FINAL SINGLE POINT ENERGY      -652.861681819628
                    ***********************HURRAY********************

CARTESIAN COORDINATES (ANGSTROEM)
---------------------------------
  C    -21.108157   26.259168   46.190946
  C    -20.254841   27.498678   45.931703
  C    -20.314906   28.224652   47.299548
  C    -20.339376   27.055082   48.303524
  O    -20.743837   25.860301   47.513969
  H    -20.926296   25.410373   45.527784
  H    -19.233321   27.169180   45.709978
  H    -20.589246   28.123064   45.100340
  H    -19.460313   28.889849   47.453989
  H    -21.230766   28.819119   47.371150
  H    -21.058061   27.193336   49.114411
  H    -19.354882   26.829101   48.722159
  C    -23.215959   27.286476   45.152714
  H    -23.861156   28.025201   45.638270
  H    -22.501381   27.816452   44.516820
  O    -22.550726   26.545512   46.231390
  C    -24.030363   26.311705   44.292837
  C    -25.176266   25.605673   45.036861
  C    -26.277066   26.706162   45.035198
  C    -26.069848   27.408869   43.677435
  O    -24.694305   27.044416   43.216759
  H    -23.352001   25.597936   43.814060
  H    -25.514331   24.756667   44.431285
  O    -24.865751   25.105538   46.349946
  H    -27.276865   26.277648   45.142910
  H    -26.107916   27.379387   45.882328
  H    -26.140475   28.499720   43.735552
  H    -26.758983   27.051081   42.906994
  H    -23.997605   25.466653   46.651141

 Multiplicity           Mult            ....    1
 Number of Electrons    NEL             ....  102
 Basis Dimension        Dim             ....  149

ORBITAL ENERGIES
----------------

  NO   OCC          E(Eh)            E(eV)
   0   2.0000     -19.160867      -521.3937
   1   2.0000     -19.152106      -521.1553
   2   2.0000     -19.140818      -520.8481
   3   2.0000     -19.108848      -519.9782
   4   2.0000     -10.295049      -280.1425
   5   2.0000     -10.240769      -278.6655
   6   2.0000     -10.234513      -278.4953
   7   2.0000     -10.233919      -278.4791
   8   2.0000     -10.228477      -278.3310
   9   2.0000     -10.227045      -278.2921
  10   2.0000     -10.200916      -277.5810
  11   2.0000     -10.197973      -277.5010
  12   2.0000     -10.178061      -276.9591
  13   2.0000      -1.065988       -29.0070
  14   2.0000      -1.025349       -27.9012
  15   2.0000      -1.006207       -27.3803
  16   2.0000      -0.988334       -26.8939
  17   2.0000      -0.798476       -21.7276
  18   2.0000      -0.774434       -21.0734
  19   2.0000      -0.767258       -20.8781
  20   2.0000      -0.740142       -20.1403
  21   2.0000      -0.683364       -18.5953
  22   2.0000      -0.612188       -16.6585
  23   2.0000      -0.602535       -16.3958
  24   2.0000      -0.595291       -16.1987
  25   2.0000      -0.575294       -15.6545
  26   2.0000      -0.533909       -14.5284
  27   2.0000      -0.519500       -14.1363
  28   2.0000      -0.505538       -13.7564
  29   2.0000      -0.488503       -13.2928
  30   2.0000      -0.475694       -12.9443
  31   2.0000      -0.463484       -12.6121
  32   2.0000      -0.446927       -12.1615
  33   2.0000      -0.431159       -11.7324
  34   2.0000      -0.427112       -11.6223
  35   2.0000      -0.421103       -11.4588
  36   2.0000      -0.410336       -11.1658
  37   2.0000      -0.388334       -10.5671
  38   2.0000      -0.386572       -10.5192
  39   2.0000      -0.371803       -10.1173
  40   2.0000      -0.366283        -9.9671
  41   2.0000      -0.362914        -9.8754
  42   2.0000      -0.346690        -9.4339
  43   2.0000      -0.342603        -9.3227
  44   2.0000      -0.322840        -8.7849
  45   2.0000      -0.316361        -8.6086
  46   2.0000      -0.284975        -7.7546
  47   2.0000      -0.278330        -7.5737
  48   2.0000      -0.271098        -7.3769
  49   2.0000      -0.244498        -6.6531
  50   2.0000      -0.238467        -6.4890
  51   0.0000       0.057966         1.5773
  52   0.0000       0.075473         2.0537
  53   0.0000       0.093424         2.5422
  54   0.0000       0.094470         2.5707
  55   0.0000       0.100821         2.7435

MULLIKEN ATOMIC CHARGES
-----------------------
   0 C :    0.317772
   1 C :   -0.290996
   2 C :   -0.299091
   3 C :   -0.003801
   4 O :   -0.496217
   5 H :    0.156741
   6 H :    0.157626
   7 H :    0.150773
   8 H :    0.148126
   9 H :    0.158944
  10 H :    0.159245
  11 H :    0.148739
  12 C :   -0.036949
  13 H :    0.156693
  14 H :    0.151632
  15 O :   -0.555235
  16 C :    0.055492
  17 C :    0.124408
  18 C :   -0.294749
  19 C :   -0.029890
  20 O :   -0.522400
  21 H :    0.150069
  22 H :    0.144976
  23 O :   -0.643151
  24 H :    0.149676
  25 H :    0.145071
  26 H :    0.143180
  27 H :    0.151786
  28 H :    0.401531
Sum of atomic charges:    0.0000000

LOEWDIN ATOMIC CHARGES
----------------------
   0 C :    0.186700
   1 C :   -0.230843
   2 C :   -0.215983
   3 C :   -0.024843
   4 O :   -0.299300
   5 H :    0.104718
   6 H :    0.121888
   7 H :    0.116796
   8 H :    0.117576
   9 H :    0.116399
  10 H :    0.112226
  11 H :    0.106432
  12 C :   -0.049878
  13 H :    0.110955
  14 H :    0.108906
  15 O :   -0.346320
  16 C :    0.009440
  17 C :    0.042460
  18 C :   -0.235188
  19 C :   -0.034799
  20 O :   -0.327361
  21 H :    0.109644
  22 H :    0.103842
  23 O :   -0.435571
  24 H :    0.121070
  25 H :    0.111178
  26 H :    0.101886
  27 H :    0.106892
  28 H :    0.291079

  Mayer bond orders larger than 0.100000
B(  0-C ,  1-C ) :   0.9367 B(  0-C ,  4-O ) :   0.9507 B(  0-C ,  5-H ) :   0.9232
B(  0-C , 15-O ) :   0.7887 B(  1-C ,  2-C ) :   0.9473 B(  1-C ,  6-H ) :   0.9328
B(  1-C ,  7-H ) :   0.9260 B(  2-C ,  3-C ) :   0.9551 B(  2-C ,  8-H ) :   0.9444
B(  2-C ,  9-H ) :   0.9457 B(  3-C ,  4-O ) :   0.8276 B(  3-C , 10-H ) :   0.9343
B(  3-C , 11-H ) :   0.9394 B( 12-C , 13-H ) :   0.9339 B( 12-C , 14-H ) :   0.9178
B( 12-C , 15-O ) :   0.7973 B( 12-C , 16-C ) :   0.8862 B( 16-C , 17-C ) :   0.9143
B( 16-C , 20-O ) :   0.8534 B( 16-C , 21-H ) :   0.9326 B( 17-C , 18-C ) :   0.9004
B( 17-C , 22-H ) :   0.9302 B( 17-C , 23-O ) :   0.9387 B( 18-C , 19-C ) :   0.9410
B( 18-C , 24-H ) :   0.9450 B( 18-C , 25-H ) :   0.9431 B( 19-C , 20-O ) :   0.8323
B( 19-C , 26-H ) :   0.9338 B( 19-C , 27-H ) :   0.9378 B( 23-O , 28-H ) :   0.7179

FINAL SINGLE POINT ENERGY      -652.861684062767

DIPOLE MOMENT
-------------
                                X             Y             Z
Electronic contribution:     -0.54659      -4.65335      -0.37920
Nuclear contribution   :      1.42274       6.09862       0.16151
                        -----------------------------------------
Total Dipole Moment    :      0.87615       1.44527      -0.21769
                        -----------------------------------------
Magnitude (a.u.)       :      1.70406
Magnitude (Debye)      :      4.33138

Rotational constants in cm-1:     0.058768     0.013248     0.012022
Rotational constants in MHz :  1761.818314   397.161046   360.404408

                             ****ORCA TERMINATED NORMALLY****
TOTAL RUN TIME: 0 days 0 hours 33 minutes 7 seconds 131 msec
