                         Program Version 4.2.0 -  RELEASE  -
|  1> # Test redundant internal optimization
|  2> #
|  3> ! RKS B3LYP  Opt TightSCF SmallPrint
|  4>
|  5> %basis
|  6>         Basis "6-31G"
|  7> end
|  8>
|  9> %geom
| 10> Constraints
| 11> { D 4  0  15  12  195.0   C } # D for Dihedral angle
| 12> { D 0  15  12  16  60.0   C } # D for Dihedral angle
| 13> { D 0  4  3  2   C } # D for Dihedral angle
| 14> { D 4  3  2  1   C } # D for Dihedral angle
| 15> { D 3  2  1  0   C } # D for Dihedral angle
| 16> { D 2  1  0  4   C } # D for Dihedral angle
| 17> { D 1  0  4  3   C } # D for Dihedral angle
| 18> { D 16  20  19  18   C } # D for Dihedral angle
| 19> { D 20  19  18  17   C } # D for Dihedral angle
| 20> { D 19  18  17  16   C } # D for Dihedral angle
| 21> { D 18  17  16  20   C } # D for Dihedral angle
| 22> { D 17  16  20  19   C } # D for Dihedral angle
| 23> { D 15  12  16  20   C } # D for Dihedral angle
| 24> end
| 25> end
| 26>
| 27>
| 28> #%pal
| 29> #nprocs 8
| 30> #end
| 31>
| 32> * xyz 0 1
| 33> C  -21.048   26.222   46.251
| 34> C  -20.361   27.558   45.944
| 35> C  -20.329   28.222   47.341
| 36> C  -20.110   27.022   48.296
| 37> O  -20.473   25.807   47.535
| 38> H  -20.833   25.428   45.533
| 39> H  -19.344   27.382   45.576
| 40> H  -20.898   28.157   45.201
| 41> H  -19.543   28.978   47.434
| 42> H  -21.289   28.710   47.548
| 43> H  -20.733   27.082   49.195
| 44> H  -19.064   26.913   48.597
| 45> C  -23.353   26.472   45.026
| 46> H  -24.424   26.602   45.226
| 47> H  -23.007   27.332   44.437
| 48> O  -22.586   26.394   46.375
| 49> C  -23.168   25.198   44.156
| 50> C  -23.841   25.357   42.788
| 51> C  -22.803   26.215   42.026
| 52> C  -21.450   25.700   42.576
| 53> O  -21.751   24.994   43.840
| 54> H  -23.499   24.326   44.724
| 55> O  -24.007   23.968   42.112
| 56> H  -24.826   25.833   42.846
| 57> H  -22.880   26.107   40.939
| 58> H  -22.941   27.275   42.268
| 59> H  -20.743   26.513   42.779
| 60> H  -20.975   24.977   41.907
| 61> H  -23.032   23.473   42.043
| 62> *
| 63>
| 64>                          ****END OF INPUT****
 Total Charge           Charge          ....    0
 Multiplicity           Mult            ....    1
 Number of Electrons    NEL             ....  102
FINAL SINGLE POINT ENERGY      -652.830643266704
FINAL SINGLE POINT ENERGY      -652.853416206945
FINAL SINGLE POINT ENERGY      -652.857202197114
FINAL SINGLE POINT ENERGY      -652.859212749807
FINAL SINGLE POINT ENERGY      -652.859422870615
FINAL SINGLE POINT ENERGY      -652.859463765445
                    ***********************HURRAY********************

CARTESIAN COORDINATES (ANGSTROEM)
---------------------------------
  C    -20.915175   26.231371   46.226536
  C    -20.252306   27.592782   46.025703
  C    -20.420923   28.241898   47.421470
  C    -20.275247   27.038900   48.377288
  O    -20.497315   25.831987   47.539714
  H    -20.632516   25.449461   45.526239
  H    -19.192652   27.448695   45.783289
  H    -20.710606   28.182163   45.225307
  H    -19.679602   29.022920   47.615623
  H    -21.419325   28.680750   47.505041
  H    -21.007600   27.042145   49.188789
  H    -19.268604   26.948207   48.796967
  C    -23.144173   26.447415   45.049157
  H    -24.181523   26.536572   45.386675
  H    -22.887159   27.368379   44.497997
  O    -22.375827   26.371871   46.274944
  C    -23.033485   25.238422   44.112860
  C    -23.847883   25.375750   42.816306
  C    -22.872450   26.180837   41.916077
  C    -21.480472   25.641891   42.335909
  O    -21.662880   24.981848   43.653579
  H    -23.332094   24.341776   44.666446
  O    -24.157113   24.074013   42.251035
  H    -24.812908   25.866549   42.951185
  H    -23.093570   26.012509   40.859194
  H    -22.963138   27.253249   42.121901
  H    -20.730995   26.433255   42.433844
  H    -21.097989   24.882539   41.647175
  H    -23.365472   23.498847   42.312750

 Multiplicity           Mult            ....    1
 Number of Electrons    NEL             ....  102
 Basis Dimension        Dim             ....  149

ORBITAL ENERGIES
----------------

  NO   OCC          E(Eh)            E(eV)
   0   2.0000     -19.155528      -521.2484
   1   2.0000     -19.145036      -520.9629
   2   2.0000     -19.133116      -520.6386
   3   2.0000     -19.130791      -520.5753
   4   2.0000     -10.263713      -279.2898
   5   2.0000     -10.250872      -278.9404
   6   2.0000     -10.241443      -278.6838
   7   2.0000     -10.240555      -278.6597
   8   2.0000     -10.235919      -278.5335
   9   2.0000     -10.217361      -278.0285
  10   2.0000     -10.198532      -277.5162
  11   2.0000     -10.180474      -277.0248
  12   2.0000     -10.180279      -277.0195
  13   2.0000      -1.049132       -28.5483
  14   2.0000      -1.039865       -28.2962
  15   2.0000      -1.014834       -27.6150
  16   2.0000      -0.984922       -26.8011
  17   2.0000      -0.792498       -21.5650
  18   2.0000      -0.779675       -21.2160
  19   2.0000      -0.771090       -20.9824
  20   2.0000      -0.728533       -19.8244
  21   2.0000      -0.677625       -18.4391
  22   2.0000      -0.612867       -16.6769
  23   2.0000      -0.604434       -16.4475
  24   2.0000      -0.591277       -16.0895
  25   2.0000      -0.571441       -15.5497
  26   2.0000      -0.533030       -14.5045
  27   2.0000      -0.508288       -13.8312
  28   2.0000      -0.497336       -13.5332
  29   2.0000      -0.486847       -13.2478
  30   2.0000      -0.478337       -13.0162
  31   2.0000      -0.458912       -12.4876
  32   2.0000      -0.448050       -12.1921
  33   2.0000      -0.444370       -12.0919
  34   2.0000      -0.429100       -11.6764
  35   2.0000      -0.407229       -11.0813
  36   2.0000      -0.402958       -10.9650
  37   2.0000      -0.397496       -10.8164
  38   2.0000      -0.381909       -10.3923
  39   2.0000      -0.371374       -10.1056
  40   2.0000      -0.365619        -9.9490
  41   2.0000      -0.350239        -9.5305
  42   2.0000      -0.348846        -9.4926
  43   2.0000      -0.336377        -9.1533
  44   2.0000      -0.321727        -8.7546
  45   2.0000      -0.303333        -8.2541
  46   2.0000      -0.299171        -8.1408
  47   2.0000      -0.280176        -7.6240
  48   2.0000      -0.266585        -7.2542
  49   2.0000      -0.250480        -6.8159
  50   2.0000      -0.234354        -6.3771
  51   0.0000       0.054401         1.4803
  52   0.0000       0.076801         2.0899
  53   0.0000       0.087839         2.3902
  54   0.0000       0.092983         2.5302
  55   0.0000       0.101658         2.7663

MULLIKEN ATOMIC CHARGES
-----------------------
   0 C :    0.275688
   1 C :   -0.271828
   2 C :   -0.296619
   3 C :   -0.000098
   4 O :   -0.502473
   5 H :    0.193690
   6 H :    0.143900
   7 H :    0.132576
   8 H :    0.137281
   9 H :    0.156965
  10 H :    0.151237
  11 H :    0.138231
  12 C :   -0.005161
  13 H :    0.156862
  14 H :    0.111932
  15 O :   -0.517036
  16 C :    0.054346
  17 C :    0.082527
  18 C :   -0.298857
  19 C :   -0.035499
  20 O :   -0.523793
  21 H :    0.175147
  22 O :   -0.599916
  23 H :    0.155748
  24 H :    0.168120
  25 H :    0.147194
  26 H :    0.150189
  27 H :    0.153666
  28 H :    0.365980
Sum of atomic charges:   -0.0000000

LOEWDIN ATOMIC CHARGES
----------------------
   0 C :    0.171873
   1 C :   -0.229492
   2 C :   -0.217422
   3 C :   -0.026470
   4 O :   -0.304203
   5 H :    0.121281
   6 H :    0.113238
   7 H :    0.108427
   8 H :    0.111716
   9 H :    0.116456
  10 H :    0.107637
  11 H :    0.100455
  12 C :   -0.041575
  13 H :    0.119791
  14 H :    0.082320
  15 O :   -0.333701
  16 C :    0.003410
  17 C :    0.038384
  18 C :   -0.241690
  19 C :   -0.039913
  20 O :   -0.328125
  21 H :    0.121952
  22 O :   -0.411292
  23 H :    0.117737
  24 H :    0.129367
  25 H :    0.114036
  26 H :    0.105408
  27 H :    0.106170
  28 H :    0.284226

  Mayer bond orders larger than 0.100000
B(  0-C ,  1-C ) :   0.9327 B(  0-C ,  4-O ) :   0.9246 B(  0-C ,  5-H ) :   0.8949
B(  0-C , 15-O ) :   0.8100 B(  1-C ,  2-C ) :   0.9518 B(  1-C ,  6-H ) :   0.9359
B(  1-C ,  7-H ) :   0.9373 B(  2-C ,  3-C ) :   0.9563 B(  2-C ,  8-H ) :   0.9457
B(  2-C ,  9-H ) :   0.9449 B(  3-C ,  4-O ) :   0.8407 B(  3-C , 10-H ) :   0.9348
B(  3-C , 11-H ) :   0.9401 B( 12-C , 13-H ) :   0.9288 B( 12-C , 14-H ) :   0.9151
B( 12-C , 15-O ) :   0.8790 B( 12-C , 16-C ) :   0.8860 B( 16-C , 17-C ) :   0.8961
B( 16-C , 20-O ) :   0.8399 B( 16-C , 21-H ) :   0.9216 B( 17-C , 18-C ) :   0.9107
B( 17-C , 22-O ) :   0.8931 B( 17-C , 23-H ) :   0.9337 B( 18-C , 19-C ) :   0.9433
B( 18-C , 24-H ) :   0.9361 B( 18-C , 25-H ) :   0.9319 B( 19-C , 20-O ) :   0.8389
B( 19-C , 26-H ) :   0.9332 B( 19-C , 27-H ) :   0.9370 B( 22-O , 28-H ) :   0.7946

FINAL SINGLE POINT ENERGY      -652.859467051889

DIPOLE MOMENT
-------------
                                X             Y             Z
Electronic contribution:     -1.94953      -6.04129       0.98791
Nuclear contribution   :      2.29483       7.32316      -1.93877
                        -----------------------------------------
Total Dipole Moment    :      0.34531       1.28188      -0.95086
                        -----------------------------------------
Magnitude (a.u.)       :      1.63297
Magnitude (Debye)      :      4.15067

Rotational constants in cm-1:     0.067009     0.012658     0.012213
Rotational constants in MHz :  2008.872704   379.468442   366.144312

                             ****ORCA TERMINATED NORMALLY****
TOTAL RUN TIME: 0 days 0 hours 27 minutes 36 seconds 565 msec
