                         Program Version 4.2.0 -  RELEASE  -
|  1> # Test redundant internal optimization
|  2> #
|  3> ! RKS B3LYP  Opt TightSCF SmallPrint
|  4>
|  5> %basis
|  6>         Basis "6-31G"
|  7> end
|  8>
|  9> %geom
| 10> Constraints
| 11> { D 4  0  15  12  210.0   C } # D for Dihedral angle
| 12> { D 0  15  12  16  255.0   C } # D for Dihedral angle
| 13> { D 0  4  3  2   C } # D for Dihedral angle
| 14> { D 4  3  2  1   C } # D for Dihedral angle
| 15> { D 3  2  1  0   C } # D for Dihedral angle
| 16> { D 2  1  0  4   C } # D for Dihedral angle
| 17> { D 1  0  4  3   C } # D for Dihedral angle
| 18> { D 16  20  19  18   C } # D for Dihedral angle
| 19> { D 20  19  18  17   C } # D for Dihedral angle
| 20> { D 19  18  17  16   C } # D for Dihedral angle
| 21> { D 18  17  16  20   C } # D for Dihedral angle
| 22> { D 17  16  20  19   C } # D for Dihedral angle
| 23> { D 15  12  16  20   C } # D for Dihedral angle
| 24> end
| 25> end
| 26>
| 27>
| 28> #%pal
| 29> #nprocs 8
| 30> #end
| 31>
| 32> * xyz 0 1
| 33> C  -21.048   26.222   46.251
| 34> C  -20.361   27.558   45.944
| 35> C  -20.329   28.222   47.341
| 36> C  -20.110   27.022   48.296
| 37> O  -20.473   25.807   47.535
| 38> H  -20.833   25.428   45.533
| 39> H  -19.344   27.382   45.576
| 40> H  -20.898   28.157   45.201
| 41> H  -19.543   28.978   47.434
| 42> H  -21.289   28.710   47.548
| 43> H  -20.733   27.082   49.195
| 44> H  -19.064   26.913   48.597
| 45> C  -23.389   26.110   45.076
| 46> H  -22.750   25.571   44.366
| 47> H  -24.264   25.485   45.294
| 48> O  -22.586   26.394   46.375
| 49> C  -23.896   27.408   44.388
| 50> C  -22.728   28.269   43.894
| 51> C  -22.336   27.544   42.584
| 52> C  -23.698   27.048   42.036
| 53> O  -24.646   27.083   43.170
| 54> H  -24.585   27.923   45.060
| 55> O  -23.219   29.712   43.596
| 56> H  -21.902   28.327   44.611
| 57> H  -21.814   28.196   41.878
| 58> H  -21.677   26.696   42.807
| 59> H  -23.645   26.028   41.643
| 60> H  -24.099   27.706   41.260
| 61> H  -24.047   29.679   42.878
| 62> *
| 63>
| 64>                          ****END OF INPUT****
 Total Charge           Charge          ....    0
 Multiplicity           Mult            ....    1
 Number of Electrons    NEL             ....  102
FINAL SINGLE POINT ENERGY      -652.811755352557
FINAL SINGLE POINT ENERGY      -652.836188206752
FINAL SINGLE POINT ENERGY      -652.850457101070
FINAL SINGLE POINT ENERGY      -652.852970836325
FINAL SINGLE POINT ENERGY      -652.853511394052
FINAL SINGLE POINT ENERGY      -652.853582506452
FINAL SINGLE POINT ENERGY      -652.853595016453
                    ***********************HURRAY********************

CARTESIAN COORDINATES (ANGSTROEM)
---------------------------------
  C    -21.008115   26.204741   46.250975
  C    -20.187488   27.472571   46.015921
  C    -20.253140   28.165162   47.403096
  C    -20.239394   26.965401   48.374158
  O    -20.618828   25.785103   47.564637
  H    -20.794033   25.384016   45.556179
  H    -19.156218   27.175798   45.786695
  H    -20.544318   28.099209   45.202312
  H    -19.418259   28.851461   47.570551
  H    -21.189280   28.724795   47.492372
  H    -20.953473   27.067968   49.195045
  H    -19.244495   26.761709   48.781647
  C    -23.272402   26.219265   45.120853
  H    -22.736782   25.574269   44.405666
  H    -24.154394   25.667767   45.457403
  O    -22.450447   26.422471   46.303655
  C    -23.792955   27.464665   44.373396
  C    -22.804725   28.442041   43.719251
  C    -22.407443   27.674178   42.429480
  C    -23.720332   26.947539   42.040988
  O    -24.575334   26.938871   43.247746
  H    -24.483574   28.015686   45.018685
  O    -23.478010   29.694508   43.404434
  H    -21.969501   28.726827   44.348080
  H    -22.057743   28.364760   41.658496
  H    -21.605230   26.958614   42.644148
  H    -23.554972   25.916531   41.713740
  H    -24.272452   27.476165   41.257753
  H    -24.362664   29.497908   43.029640

 Multiplicity           Mult            ....    1
 Number of Electrons    NEL             ....  102
 Basis Dimension        Dim             ....  149

ORBITAL ENERGIES
----------------

  NO   OCC          E(Eh)            E(eV)
   0   2.0000     -19.151301      -521.1334
   1   2.0000     -19.142255      -520.8873
   2   2.0000     -19.141530      -520.8675
   3   2.0000     -19.140950      -520.8517
   4   2.0000     -10.284461      -279.8544
   5   2.0000     -10.246155      -278.8120
   6   2.0000     -10.238270      -278.5975
   7   2.0000     -10.238077      -278.5922
   8   2.0000     -10.234006      -278.4815
   9   2.0000     -10.225540      -278.2511
  10   2.0000     -10.196383      -277.4577
  11   2.0000     -10.190585      -277.2999
  12   2.0000     -10.188318      -277.2382
  13   2.0000      -1.054425       -28.6924
  14   2.0000      -1.044144       -28.4126
  15   2.0000      -1.011492       -27.5241
  16   2.0000      -0.993833       -27.0436
  17   2.0000      -0.788897       -21.4670
  18   2.0000      -0.784845       -21.3567
  19   2.0000      -0.771467       -20.9927
  20   2.0000      -0.737107       -20.0577
  21   2.0000      -0.678966       -18.4756
  22   2.0000      -0.612207       -16.6590
  23   2.0000      -0.604543       -16.4505
  24   2.0000      -0.598285       -16.2802
  25   2.0000      -0.583791       -15.8858
  26   2.0000      -0.526739       -14.3333
  27   2.0000      -0.521386       -14.1876
  28   2.0000      -0.502290       -13.6680
  29   2.0000      -0.490073       -13.3356
  30   2.0000      -0.478172       -13.0117
  31   2.0000      -0.459599       -12.5063
  32   2.0000      -0.457611       -12.4522
  33   2.0000      -0.439341       -11.9551
  34   2.0000      -0.423859       -11.5338
  35   2.0000      -0.422290       -11.4911
  36   2.0000      -0.409148       -11.1335
  37   2.0000      -0.397239       -10.8094
  38   2.0000      -0.380952       -10.3662
  39   2.0000      -0.374343       -10.1864
  40   2.0000      -0.366284        -9.9671
  41   2.0000      -0.357411        -9.7256
  42   2.0000      -0.353246        -9.6123
  43   2.0000      -0.336960        -9.1691
  44   2.0000      -0.314220        -8.5504
  45   2.0000      -0.312783        -8.5113
  46   2.0000      -0.302092        -8.2203
  47   2.0000      -0.277160        -7.5419
  48   2.0000      -0.270331        -7.3561
  49   2.0000      -0.260754        -7.0955
  50   2.0000      -0.240280        -6.5384
  51   0.0000       0.061858         1.6832
  52   0.0000       0.065838         1.7915
  53   0.0000       0.082767         2.2522
  54   0.0000       0.093461         2.5432
  55   0.0000       0.099100         2.6966

MULLIKEN ATOMIC CHARGES
-----------------------
   0 C :    0.302136
   1 C :   -0.279327
   2 C :   -0.298355
   3 C :    0.000662
   4 O :   -0.497949
   5 H :    0.135338
   6 H :    0.146616
   7 H :    0.142816
   8 H :    0.143655
   9 H :    0.163065
  10 H :    0.155904
  11 H :    0.141490
  12 C :   -0.009694
  13 H :    0.119707
  14 H :    0.173241
  15 O :   -0.515777
  16 C :    0.050326
  17 C :    0.073474
  18 C :   -0.295311
  19 C :   -0.032008
  20 O :   -0.522706
  21 H :    0.167036
  22 O :   -0.604744
  23 H :    0.167660
  24 H :    0.165398
  25 H :    0.140655
  26 H :    0.150262
  27 H :    0.150474
  28 H :    0.365957
Sum of atomic charges:    0.0000000

LOEWDIN ATOMIC CHARGES
----------------------
   0 C :    0.183494
   1 C :   -0.231838
   2 C :   -0.215976
   3 C :   -0.024970
   4 O :   -0.302509
   5 H :    0.094074
   6 H :    0.115443
   7 H :    0.111472
   8 H :    0.115352
   9 H :    0.119182
  10 H :    0.110156
  11 H :    0.101952
  12 C :   -0.040507
  13 H :    0.091144
  14 H :    0.123217
  15 O :   -0.337439
  16 C :    0.008076
  17 C :    0.033750
  18 C :   -0.240923
  19 C :   -0.039100
  20 O :   -0.327277
  21 H :    0.117649
  22 O :   -0.414741
  23 H :    0.117949
  24 H :    0.128043
  25 H :    0.111209
  26 H :    0.105579
  27 H :    0.104337
  28 H :    0.283202

  Mayer bond orders larger than 0.100000
B(  0-C ,  1-C ) :   0.9284 B(  0-C ,  4-O ) :   0.9387 B(  0-C ,  5-H ) :   0.9181
B(  0-C , 15-O ) :   0.8384 B(  1-C ,  2-C ) :   0.9560 B(  1-C ,  6-H ) :   0.9318
B(  1-C ,  7-H ) :   0.9160 B(  2-C ,  3-C ) :   0.9539 B(  2-C ,  8-H ) :   0.9447
B(  2-C ,  9-H ) :   0.9430 B(  3-C ,  4-O ) :   0.8342 B(  3-C , 10-H ) :   0.9343
B(  3-C , 11-H ) :   0.9395 B( 12-C , 13-H ) :   0.9231 B( 12-C , 14-H ) :   0.9273
B( 12-C , 15-O ) :   0.8510 B( 12-C , 16-C ) :   0.8799 B( 16-C , 17-C ) :   0.9110
B( 16-C , 20-O ) :   0.8277 B( 16-C , 21-H ) :   0.9256 B( 17-C , 18-C ) :   0.9161
B( 17-C , 22-O ) :   0.8850 B( 17-C , 23-H ) :   0.9075 B( 18-C , 19-C ) :   0.9403
B( 18-C , 24-H ) :   0.9374 B( 18-C , 25-H ) :   0.9339 B( 19-C , 20-O ) :   0.8402
B( 19-C , 26-H ) :   0.9342 B( 19-C , 27-H ) :   0.9378 B( 22-O , 28-H ) :   0.7923

FINAL SINGLE POINT ENERGY      -652.853596328460

DIPOLE MOMENT
-------------
                                X             Y             Z
Electronic contribution:     -4.17792      -1.61663       1.27604
Nuclear contribution   :      4.94022       1.84840      -2.11514
                        -----------------------------------------
Total Dipole Moment    :      0.76231       0.23177      -0.83910
                        -----------------------------------------
Magnitude (a.u.)       :      1.15712
Magnitude (Debye)      :      2.94116

Rotational constants in cm-1:     0.053843     0.013841     0.012644
Rotational constants in MHz :  1614.181580   414.941238   379.067098

                             ****ORCA TERMINATED NORMALLY****
TOTAL RUN TIME: 0 days 0 hours 22 minutes 3 seconds 59 msec
