                         Program Version 4.2.0 -  RELEASE  -
|  1> # Test redundant internal optimization
|  2> #
|  3> ! RKS B3LYP  Opt TightSCF SmallPrint
|  4>
|  5> %basis
|  6>         Basis "6-31G"
|  7> end
|  8>
|  9> %geom
| 10> Constraints
| 11> { D 4  0  15  12  240.0   C } # D for Dihedral angle
| 12> { D 0  15  12  16  45.0   C } # D for Dihedral angle
| 13> { D 0  4  3  2   C } # D for Dihedral angle
| 14> { D 4  3  2  1   C } # D for Dihedral angle
| 15> { D 3  2  1  0   C } # D for Dihedral angle
| 16> { D 2  1  0  4   C } # D for Dihedral angle
| 17> { D 1  0  4  3   C } # D for Dihedral angle
| 18> { D 16  20  19  18   C } # D for Dihedral angle
| 19> { D 20  19  18  17   C } # D for Dihedral angle
| 20> { D 19  18  17  16   C } # D for Dihedral angle
| 21> { D 18  17  16  20   C } # D for Dihedral angle
| 22> { D 17  16  20  19   C } # D for Dihedral angle
| 23> { D 15  12  16  20   C } # D for Dihedral angle
| 24> end
| 25> end
| 26>
| 27>
| 28> #%pal
| 29> #nprocs 8
| 30> #end
| 31>
| 32> * xyz 0 1
| 33> C  -21.048   26.222   46.251
| 34> C  -20.361   27.558   45.944
| 35> C  -20.329   28.222   47.341
| 36> C  -20.110   27.022   48.296
| 37> O  -20.473   25.807   47.535
| 38> H  -20.833   25.428   45.533
| 39> H  -19.344   27.382   45.576
| 40> H  -20.898   28.157   45.201
| 41> H  -19.543   28.978   47.434
| 42> H  -21.289   28.710   47.548
| 43> H  -20.733   27.082   49.195
| 44> H  -19.064   26.913   48.597
| 45> C  -23.430   25.483   45.442
| 46> H  -24.474   25.486   45.780
| 47> H  -23.402   25.858   44.411
| 48> O  -22.586   26.394   46.375
| 49> C  -22.928   24.012   45.424
| 50> C  -23.708   23.170   44.409
| 51> C  -23.033   23.579   43.078
| 52> C  -21.553   23.790   43.484
| 53> O  -21.540   23.951   44.954
| 54> H  -22.939   23.618   46.442
| 55> H  -23.555   22.103   44.608
| 56> O  -25.234   23.457   44.423
| 57> H  -23.147   22.823   42.294
| 58> H  -23.468   24.515   42.707
| 59> H  -21.114   24.681   43.022
| 60> H  -20.928   22.924   43.249
| 61> H  -25.412   24.520   44.225
| 62> *
| 63>
| 64>                          ****END OF INPUT****
 Total Charge           Charge          ....    0
 Multiplicity           Mult            ....    1
 Number of Electrons    NEL             ....  102
FINAL SINGLE POINT ENERGY      -652.819586314912
FINAL SINGLE POINT ENERGY      -652.842348530624
FINAL SINGLE POINT ENERGY      -652.852435330980
FINAL SINGLE POINT ENERGY      -652.854265949589
FINAL SINGLE POINT ENERGY      -652.854595030779
FINAL SINGLE POINT ENERGY      -652.854651424036
FINAL SINGLE POINT ENERGY      -652.854657146158
FINAL SINGLE POINT ENERGY      -652.854657442229
                    ***********************HURRAY********************

CARTESIAN COORDINATES (ANGSTROEM)
---------------------------------
  C    -20.857517   26.252828   46.236628
  C    -20.319865   27.668493   46.026737
  C    -20.477420   28.283623   47.438853
  C    -20.187640   27.084525   48.368869
  O    -20.344719   25.872331   47.530086
  H    -20.541171   25.490395   45.529742
  H    -19.262755   27.617699   45.738894
  H    -20.870935   28.212905   45.255997
  H    -19.797275   29.122661   47.613507
  H    -21.505261   28.633555   47.571960
  H    -20.878812   27.021531   49.213745
  H    -19.159018   27.077618   48.743313
  C    -23.176870   25.515898   45.467660
  H    -24.163328   25.597453   45.933358
  H    -23.234075   25.969010   44.462226
  O    -22.314243   26.333781   46.297745
  C    -22.835391   24.026255   45.341938
  C    -23.797192   23.251781   44.421565
  C    -23.173441   23.514246   43.015215
  C    -21.657742   23.540622   43.312672
  O    -21.511394   23.759301   44.777576
  H    -22.805038   23.598191   46.348844
  H    -23.752016   22.188696   44.666080
  O    -25.195728   23.596844   44.546878
  H    -23.450542   22.744337   42.290505
  H    -23.524482   24.482104   42.633940
  H    -21.131785   24.338327   42.778730
  H    -21.173041   22.586768   43.086125
  H    -25.377302   24.463221   44.128611

 Multiplicity           Mult            ....    1
 Number of Electrons    NEL             ....  102
 Basis Dimension        Dim             ....  149

ORBITAL ENERGIES
----------------

  NO   OCC          E(Eh)            E(eV)
   0   2.0000     -19.155160      -521.2384
   1   2.0000     -19.149559      -521.0860
   2   2.0000     -19.130342      -520.5631
   3   2.0000     -19.124224      -520.3966
   4   2.0000     -10.259607      -279.1781
   5   2.0000     -10.251204      -278.9494
   6   2.0000     -10.238823      -278.6125
   7   2.0000     -10.235116      -278.5117
   8   2.0000     -10.232551      -278.4419
   9   2.0000     -10.212544      -277.8974
  10   2.0000     -10.201891      -277.6076
  11   2.0000     -10.174531      -276.8631
  12   2.0000     -10.173883      -276.8454
  13   2.0000      -1.043301       -28.3897
  14   2.0000      -1.034859       -28.1600
  15   2.0000      -1.022907       -27.8347
  16   2.0000      -0.980728       -26.6870
  17   2.0000      -0.789597       -21.4860
  18   2.0000      -0.777248       -21.1500
  19   2.0000      -0.765442       -20.8287
  20   2.0000      -0.725501       -19.7419
  21   2.0000      -0.679322       -18.4853
  22   2.0000      -0.618912       -16.8414
  23   2.0000      -0.597210       -16.2509
  24   2.0000      -0.586057       -15.9474
  25   2.0000      -0.564826       -15.3697
  26   2.0000      -0.534167       -14.5354
  27   2.0000      -0.510189       -13.8830
  28   2.0000      -0.495873       -13.4934
  29   2.0000      -0.477113       -12.9829
  30   2.0000      -0.468460       -12.7474
  31   2.0000      -0.453884       -12.3508
  32   2.0000      -0.439858       -11.9692
  33   2.0000      -0.436205       -11.8697
  34   2.0000      -0.429457       -11.6861
  35   2.0000      -0.420579       -11.4445
  36   2.0000      -0.405970       -11.0470
  37   2.0000      -0.390438       -10.6244
  38   2.0000      -0.386222       -10.5096
  39   2.0000      -0.366530        -9.9738
  40   2.0000      -0.358556        -9.7568
  41   2.0000      -0.345555        -9.4030
  42   2.0000      -0.339706        -9.2439
  43   2.0000      -0.331785        -9.0283
  44   2.0000      -0.324044        -8.8177
  45   2.0000      -0.306429        -8.3383
  46   2.0000      -0.295524        -8.0416
  47   2.0000      -0.277811        -7.5596
  48   2.0000      -0.256558        -6.9813
  49   2.0000      -0.251820        -6.8524
  50   2.0000      -0.228130        -6.2077
  51   0.0000       0.045585         1.2404
  52   0.0000       0.069421         1.8890
  53   0.0000       0.087211         2.3731
  54   0.0000       0.096934         2.6377
  55   0.0000       0.105686         2.8759

MULLIKEN ATOMIC CHARGES
-----------------------
   0 C :    0.258697
   1 C :   -0.249395
   2 C :   -0.296984
   3 C :    0.000478
   4 O :   -0.502539
   5 H :    0.193308
   6 H :    0.138666
   7 H :    0.136688
   8 H :    0.133995
   9 H :    0.159561
  10 H :    0.146113
  11 H :    0.135963
  12 C :   -0.002688
  13 H :    0.159948
  14 H :    0.107043
  15 O :   -0.535241
  16 C :    0.074393
  17 C :    0.086204
  18 C :   -0.321895
  19 C :   -0.013628
  20 O :   -0.514351
  21 H :    0.176043
  22 H :    0.172432
  23 O :   -0.597784
  24 H :    0.162817
  25 H :    0.132582
  26 H :    0.145025
  27 H :    0.155758
  28 H :    0.358793
Sum of atomic charges:   -0.0000000

LOEWDIN ATOMIC CHARGES
----------------------
   0 C :    0.165920
   1 C :   -0.220566
   2 C :   -0.217010
   3 C :   -0.028344
   4 O :   -0.314777
   5 H :    0.123193
   6 H :    0.109812
   7 H :    0.113520
   8 H :    0.110043
   9 H :    0.117867
  10 H :    0.104714
  11 H :    0.099102
  12 C :   -0.044778
  13 H :    0.120378
  14 H :    0.078599
  15 O :   -0.335833
  16 C :    0.006341
  17 C :    0.038370
  18 C :   -0.240827
  19 C :   -0.031246
  20 O :   -0.317565
  21 H :    0.124198
  22 H :    0.121740
  23 O :   -0.404044
  24 H :    0.124827
  25 H :    0.104024
  26 H :    0.103045
  27 H :    0.109384
  28 H :    0.279913

  Mayer bond orders larger than 0.100000
B(  0-C ,  1-C ) :   0.9397 B(  0-C ,  4-O ) :   0.9216 B(  0-C ,  5-H ) :   0.8904
B(  0-C , 15-O ) :   0.8156 B(  1-C ,  2-C ) :   0.9563 B(  1-C ,  6-H ) :   0.9393
B(  1-C ,  7-H ) :   0.9404 B(  2-C ,  3-C ) :   0.9550 B(  2-C ,  8-H ) :   0.9464
B(  2-C ,  9-H ) :   0.9439 B(  3-C ,  4-O ) :   0.8447 B(  3-C , 10-H ) :   0.9352
B(  3-C , 11-H ) :   0.9402 B( 12-C , 13-H ) :   0.9187 B( 12-C , 14-H ) :   0.9207
B( 12-C , 15-O ) :   0.8730 B( 12-C , 16-C ) :   0.8980 B( 16-C , 17-C ) :   0.8689
B( 16-C , 20-O ) :   0.8406 B( 16-C , 21-H ) :   0.9251 B( 17-C , 18-C ) :   0.9209
B( 17-C , 22-H ) :   0.9319 B( 17-C , 23-O ) :   0.9044 B( 18-C , 19-C ) :   0.9401
B( 18-C , 24-H ) :   0.9410 B( 18-C , 25-H ) :   0.9404 B( 19-C , 20-O ) :   0.8379
B( 19-C , 26-H ) :   0.9319 B( 19-C , 27-H ) :   0.9377 B( 23-O , 28-H ) :   0.7966

FINAL SINGLE POINT ENERGY      -652.854657210582

DIPOLE MOMENT
-------------
                                X             Y             Z
Electronic contribution:     -1.55068      -3.83867       1.89504
Nuclear contribution   :      1.44838       4.41579      -3.30286
                        -----------------------------------------
Total Dipole Moment    :     -0.10230       0.57712      -1.40783
                        -----------------------------------------
Magnitude (a.u.)       :      1.52496
Magnitude (Debye)      :      3.87615

Rotational constants in cm-1:     0.059693     0.012988     0.012168
Rotational constants in MHz :  1789.562802   389.362539   364.782175

                             ****ORCA TERMINATED NORMALLY****
TOTAL RUN TIME: 0 days 0 hours 23 minutes 41 seconds 84 msec
