                         Program Version 4.2.0 -  RELEASE  -
|  1> # Test redundant internal optimization
|  2> #
|  3> ! RKS B3LYP  Opt TightSCF SmallPrint
|  4>
|  5> %basis
|  6>         Basis "6-31G"
|  7> end
|  8>
|  9> %geom
| 10> Constraints
| 11> { D 4  0  15  12  195.0   C } # D for Dihedral angle
| 12> { D 0  15  12  16  15.0   C } # D for Dihedral angle
| 13> { D 0  4  3  2   C } # D for Dihedral angle
| 14> { D 4  3  2  1   C } # D for Dihedral angle
| 15> { D 3  2  1  0   C } # D for Dihedral angle
| 16> { D 2  1  0  4   C } # D for Dihedral angle
| 17> { D 1  0  4  3   C } # D for Dihedral angle
| 18> { D 16  20  19  18   C } # D for Dihedral angle
| 19> { D 20  19  18  17   C } # D for Dihedral angle
| 20> { D 19  18  17  16   C } # D for Dihedral angle
| 21> { D 18  17  16  20   C } # D for Dihedral angle
| 22> { D 17  16  20  19   C } # D for Dihedral angle
| 23> { D 15  12  16  20   C } # D for Dihedral angle
| 24> end
| 25> end
| 26>
| 27>
| 28> #%pal
| 29> #nprocs 8
| 30> #end
| 31>
| 32> * xyz 0 1
| 33> C  -21.048   26.222   46.251
| 34> C  -20.361   27.558   45.944
| 35> C  -20.329   28.222   47.341
| 36> C  -20.110   27.022   48.296
| 37> O  -20.473   25.807   47.535
| 38> H  -20.833   25.428   45.533
| 39> H  -19.344   27.382   45.576
| 40> H  -20.898   28.157   45.201
| 41> H  -19.543   28.978   47.434
| 42> H  -21.289   28.710   47.548
| 43> H  -20.733   27.082   49.195
| 44> H  -19.064   26.913   48.597
| 45> C  -23.353   26.472   45.026
| 46> H  -24.249   25.842   45.082
| 47> H  -23.671   27.503   44.825
| 48> O  -22.586   26.394   46.375
| 49> C  -22.496   25.997   43.820
| 50> C  -23.241   26.196   42.496
| 51> C  -23.035   27.709   42.244
| 52> C  -21.612   27.967   42.800
| 53> O  -21.294   26.827   43.686
| 54> H  -22.160   24.974   44.001
| 55> O  -22.569   25.357   41.374
| 56> H  -24.299   25.915   42.551
| 57> H  -23.126   27.980   41.187
| 58> H  -23.779   28.288   42.803
| 59> H  -21.549   28.897   43.375
| 60> H  -20.853   27.985   42.012
| 61> H  -21.509   25.623   41.301
| 62> *
| 63>
| 64>                          ****END OF INPUT****
 Total Charge           Charge          ....    0
 Multiplicity           Mult            ....    1
 Number of Electrons    NEL             ....  102
FINAL SINGLE POINT ENERGY      -652.816739585970
FINAL SINGLE POINT ENERGY      -652.839896826684
FINAL SINGLE POINT ENERGY      -652.851220371233
FINAL SINGLE POINT ENERGY      -652.853122474646
FINAL SINGLE POINT ENERGY      -652.853547420301
FINAL SINGLE POINT ENERGY      -652.853595226184
FINAL SINGLE POINT ENERGY      -652.853600877183
                    ***********************HURRAY********************

CARTESIAN COORDINATES (ANGSTROEM)
---------------------------------
  C    -20.846229   26.222818   46.273411
  C    -20.143586   27.570368   46.114275
  C    -20.379977   28.224586   47.499829
  C    -20.315820   27.015993   48.457644
  O    -20.513730   25.816929   47.608243
  H    -20.519619   25.437859   45.590523
  H    -19.074476   27.398243   45.939587
  H    -20.535417   28.152657   45.282470
  H    -19.632762   28.987305   47.738883
  H    -21.371264   28.686562   47.528335
  H    -21.093731   27.030724   49.225918
  H    -19.337271   26.903411   48.935169
  C    -23.081060   26.461635   45.023934
  H    -23.951283   25.811978   45.177237
  H    -23.445604   27.496081   44.942380
  O    -22.301496   26.370402   46.249813
  C    -22.420358   26.057919   43.699850
  C    -23.349736   26.237954   42.489601
  C    -23.146274   27.741908   42.155132
  C    -21.650764   27.974124   42.487759
  O    -21.233378   26.847340   43.361571
  H    -22.082723   25.017873   43.760251
  O    -22.948248   25.379515   41.389502
  H    -24.389975   25.978695   42.689455
  H    -23.386450   27.938388   41.107681
  H    -23.795214   28.362448   42.781610
  H    -21.474682   28.916659   43.015186
  H    -21.010437   27.945064   41.601419
  H    -21.974434   25.421560   41.282332

 Multiplicity           Mult            ....    1
 Number of Electrons    NEL             ....  102
 Basis Dimension        Dim             ....  149

ORBITAL ENERGIES
----------------

  NO   OCC          E(Eh)            E(eV)
   0   2.0000     -19.157473      -521.3014
   1   2.0000     -19.147635      -521.0336
   2   2.0000     -19.130116      -520.5569
   3   2.0000     -19.129967      -520.5529
   4   2.0000     -10.269903      -279.4583
   5   2.0000     -10.253415      -279.0096
   6   2.0000     -10.245654      -278.7984
   7   2.0000     -10.243398      -278.7370
   8   2.0000     -10.235823      -278.5309
   9   2.0000     -10.216089      -277.9939
  10   2.0000     -10.199919      -277.5539
  11   2.0000     -10.176391      -276.9137
  12   2.0000     -10.170721      -276.7594
  13   2.0000      -1.050938       -28.5975
  14   2.0000      -1.040404       -28.3108
  15   2.0000      -1.017457       -27.6864
  16   2.0000      -0.982095       -26.7242
  17   2.0000      -0.795040       -21.6341
  18   2.0000      -0.776593       -21.1322
  19   2.0000      -0.771544       -20.9948
  20   2.0000      -0.729318       -19.8457
  21   2.0000      -0.677567       -18.4375
  22   2.0000      -0.615650       -16.7527
  23   2.0000      -0.609720       -16.5913
  24   2.0000      -0.588915       -16.0252
  25   2.0000      -0.565711       -15.3938
  26   2.0000      -0.534309       -14.5393
  27   2.0000      -0.514577       -14.0024
  28   2.0000      -0.493872       -13.4389
  29   2.0000      -0.486174       -13.2295
  30   2.0000      -0.476415       -12.9639
  31   2.0000      -0.457747       -12.4559
  32   2.0000      -0.450400       -12.2560
  33   2.0000      -0.442982       -12.0542
  34   2.0000      -0.427194       -11.6245
  35   2.0000      -0.411028       -11.1846
  36   2.0000      -0.406960       -11.0739
  37   2.0000      -0.395124       -10.7519
  38   2.0000      -0.383021       -10.4225
  39   2.0000      -0.370914       -10.0931
  40   2.0000      -0.360964        -9.8223
  41   2.0000      -0.352748        -9.5988
  42   2.0000      -0.345060        -9.3896
  43   2.0000      -0.338368        -9.2075
  44   2.0000      -0.320634        -8.7249
  45   2.0000      -0.305238        -8.3060
  46   2.0000      -0.298278        -8.1166
  47   2.0000      -0.281833        -7.6691
  48   2.0000      -0.255007        -6.9391
  49   2.0000      -0.249755        -6.7962
  50   2.0000      -0.239385        -6.5140
  51   0.0000       0.052178         1.4198
  52   0.0000       0.079242         2.1563
  53   0.0000       0.086590         2.3562
  54   0.0000       0.089186         2.4269
  55   0.0000       0.099169         2.6985

MULLIKEN ATOMIC CHARGES
-----------------------
   0 C :    0.309398
   1 C :   -0.255755
   2 C :   -0.303861
   3 C :    0.001491
   4 O :   -0.505495
   5 H :    0.147995
   6 H :    0.139372
   7 H :    0.153860
   8 H :    0.135627
   9 H :    0.152914
  10 H :    0.150124
  11 H :    0.138025
  12 C :    0.024143
  13 H :    0.150536
  14 H :    0.124933
  15 O :   -0.533337
  16 C :    0.033590
  17 C :    0.077554
  18 C :   -0.295807
  19 C :   -0.031196
  20 O :   -0.525967
  21 H :    0.169752
  22 O :   -0.597662
  23 H :    0.158071
  24 H :    0.165067
  25 H :    0.150777
  26 H :    0.146825
  27 H :    0.153812
  28 H :    0.365213
Sum of atomic charges:   -0.0000000

LOEWDIN ATOMIC CHARGES
----------------------
   0 C :    0.189313
   1 C :   -0.225757
   2 C :   -0.221044
   3 C :   -0.025455
   4 O :   -0.304976
   5 H :    0.101076
   6 H :    0.112683
   7 H :    0.118871
   8 H :    0.111093
   9 H :    0.114181
  10 H :    0.106652
  11 H :    0.100098
  12 C :   -0.037454
  13 H :    0.113619
  14 H :    0.092504
  15 O :   -0.341260
  16 C :    0.000090
  17 C :    0.039558
  18 C :   -0.240220
  19 C :   -0.038132
  20 O :   -0.329980
  21 H :    0.117066
  22 O :   -0.410264
  23 H :    0.118819
  24 H :    0.128658
  25 H :    0.116158
  26 H :    0.104062
  27 H :    0.106175
  28 H :    0.283866

  Mayer bond orders larger than 0.100000
B(  0-C ,  1-C ) :   0.9352 B(  0-C ,  4-O ) :   0.9273 B(  0-C ,  5-H ) :   0.9198
B(  0-C , 15-O ) :   0.8155 B(  1-C ,  2-C ) :   0.9457 B(  1-C ,  6-H ) :   0.9368
B(  1-C ,  7-H ) :   0.9297 B(  2-C ,  3-C ) :   0.9540 B(  2-C ,  8-H ) :   0.9455
B(  2-C ,  9-H ) :   0.9458 B(  3-C ,  4-O ) :   0.8366 B(  3-C , 10-H ) :   0.9356
B(  3-C , 11-H ) :   0.9402 B( 12-C , 13-H ) :   0.9194 B( 12-C , 14-H ) :   0.9220
B( 12-C , 15-O ) :   0.8588 B( 12-C , 16-C ) :   0.8973 B( 16-C , 17-C ) :   0.8943
B( 16-C , 20-O ) :   0.8392 B( 16-C , 21-H ) :   0.9206 B( 17-C , 18-C ) :   0.9122
B( 17-C , 22-O ) :   0.8966 B( 17-C , 23-H ) :   0.9328 B( 18-C , 19-C ) :   0.9426
B( 18-C , 24-H ) :   0.9368 B( 18-C , 25-H ) :   0.9317 B( 19-C , 20-O ) :   0.8387
B( 19-C , 26-H ) :   0.9323 B( 19-C , 27-H ) :   0.9374 B( 22-O , 28-H ) :   0.7942

FINAL SINGLE POINT ENERGY      -652.853601601904

DIPOLE MOMENT
-------------
                                X             Y             Z
Electronic contribution:     -0.40064      -5.66922      -0.37455
Nuclear contribution   :      0.38864       7.04110      -0.38773
                        -----------------------------------------
Total Dipole Moment    :     -0.01199       1.37188      -0.76228
                        -----------------------------------------
Magnitude (a.u.)       :      1.56948
Magnitude (Debye)      :      3.98931

Rotational constants in cm-1:     0.064258     0.013432     0.012552
Rotational constants in MHz :  1926.413693   402.675591   376.289220

                             ****ORCA TERMINATED NORMALLY****
TOTAL RUN TIME: 0 days 1 hours 19 minutes 59 seconds 274 msec
