                         Program Version 4.2.0 -  RELEASE  -
|  1> # Test redundant internal optimization
|  2> #
|  3> ! RKS B3LYP  Opt TightSCF SmallPrint
|  4>
|  5> %basis
|  6>         Basis "6-31G"
|  7> end
|  8>
|  9> %geom
| 10> Constraints
| 11> { D 4  0  15  12  60.0   C } # D for Dihedral angle
| 12> { D 0  15  12  16  135.0   C } # D for Dihedral angle
| 13> { D 0  4  3  2   C } # D for Dihedral angle
| 14> { D 4  3  2  1   C } # D for Dihedral angle
| 15> { D 3  2  1  0   C } # D for Dihedral angle
| 16> { D 2  1  0  4   C } # D for Dihedral angle
| 17> { D 1  0  4  3   C } # D for Dihedral angle
| 18> { D 16  20  19  18   C } # D for Dihedral angle
| 19> { D 20  19  18  17   C } # D for Dihedral angle
| 20> { D 19  18  17  16   C } # D for Dihedral angle
| 21> { D 18  17  16  20   C } # D for Dihedral angle
| 22> { D 17  16  20  19   C } # D for Dihedral angle
| 23> { D 15  12  16  20   C } # D for Dihedral angle
| 24> end
| 25> end
| 26>
| 27>
| 28> #%pal
| 29> #nprocs 8
| 30> #end
| 31>
| 32> * xyz 0 1
| 33> C  -21.048   26.222   46.251
| 34> C  -20.361   27.558   45.944
| 35> C  -20.329   28.222   47.341
| 36> C  -20.110   27.022   48.296
| 37> O  -20.473   25.807   47.535
| 38> H  -20.833   25.428   45.533
| 39> H  -19.344   27.382   45.576
| 40> H  -20.898   28.157   45.201
| 41> H  -19.543   28.978   47.434
| 42> H  -21.289   28.710   47.548
| 43> H  -20.733   27.082   49.195
| 44> H  -19.064   26.913   48.597
| 45> C  -23.051   27.452   47.413
| 46> H  -23.428   26.940   48.307
| 47> H  -22.210   28.091   47.713
| 48> O  -22.586   26.394   46.375
| 49> C  -24.175   28.375   46.868
| 50> C  -23.750   29.059   45.563
| 51> C  -23.968   27.926   44.531
| 52> C  -25.216   27.188   45.077
| 53> O  -25.352   27.584   46.495
| 54> H  -24.487   29.062   47.656
| 55> H  -24.410   29.907   45.351
| 56> O  -22.285   29.573   45.591
| 57> H  -24.117   28.301   43.513
| 58> H  -23.099   27.257   44.517
| 59> H  -25.120   26.099   45.015
| 60> H  -26.136   27.492   44.568
| 61> H  -21.606   28.739   45.803
| 62> *
| 63>
| 64>                          ****END OF INPUT****
 Total Charge           Charge          ....    0
 Multiplicity           Mult            ....    1
 Number of Electrons    NEL             ....  102
FINAL SINGLE POINT ENERGY      -652.755915896950
FINAL SINGLE POINT ENERGY      -652.821474385826
FINAL SINGLE POINT ENERGY      -652.843080294426
FINAL SINGLE POINT ENERGY      -652.848916395801
FINAL SINGLE POINT ENERGY      -652.849873788969
FINAL SINGLE POINT ENERGY      -652.850221621392
FINAL SINGLE POINT ENERGY      -652.850298376459
FINAL SINGLE POINT ENERGY      -652.850339906846
FINAL SINGLE POINT ENERGY      -652.850359984260
FINAL SINGLE POINT ENERGY      -652.850410142209
FINAL SINGLE POINT ENERGY      -652.852562340411
FINAL SINGLE POINT ENERGY      -652.853127306654
FINAL SINGLE POINT ENERGY      -652.853540508123
FINAL SINGLE POINT ENERGY      -652.853811881275
FINAL SINGLE POINT ENERGY      -652.853980473655
FINAL SINGLE POINT ENERGY      -652.854146100527
FINAL SINGLE POINT ENERGY      -652.854204930871
FINAL SINGLE POINT ENERGY      -652.854197116078
FINAL SINGLE POINT ENERGY      -652.854193547391
                    ***********************HURRAY********************

CARTESIAN COORDINATES (ANGSTROEM)
---------------------------------
  C    -21.156262   26.225598   46.527371
  C    -20.256291   27.358550   46.011722
  C    -19.930555   28.136339   47.321662
  C    -19.848112   27.001129   48.373289
  O    -20.534923   25.830743   47.774051
  H    -21.115349   25.342721   45.886082
  H    -19.351931   26.909837   45.587339
  H    -20.744563   27.986045   45.266206
  H    -18.985087   28.685120   47.251533
  H    -20.718023   28.860817   47.535167
  H    -20.335112   27.251561   49.321240
  H    -18.817173   26.695436   48.574698
  C    -23.190605   27.418224   47.505558
  H    -23.654926   26.866717   48.330541
  H    -22.453778   28.109390   47.918304
  O    -22.583525   26.429775   46.617809
  C    -24.288949   28.228611   46.817546
  C    -23.894143   29.061118   45.589266
  C    -23.985428   28.008922   44.446762
  C    -25.175428   27.128074   44.892698
  O    -25.373442   27.386034   46.336247
  H    -24.725412   28.868707   47.595430
  H    -24.643672   29.850206   45.441026
  O    -22.585244   29.655946   45.791065
  H    -24.151317   28.464801   43.464569
  H    -23.060927   27.431103   44.431151
  H    -24.978054   26.062515   44.749731
  H    -26.109399   27.396098   44.388063
  H    -22.373370   30.269863   45.060874

 Multiplicity           Mult            ....    1
 Number of Electrons    NEL             ....  102
 Basis Dimension        Dim             ....  149

ORBITAL ENERGIES
----------------

  NO   OCC          E(Eh)            E(eV)
   0   2.0000     -19.156768      -521.2822
   1   2.0000     -19.134319      -520.6713
   2   2.0000     -19.133438      -520.6473
   3   2.0000     -19.130681      -520.5723
   4   2.0000     -10.270461      -279.4735
   5   2.0000     -10.245601      -278.7970
   6   2.0000     -10.231029      -278.4004
   7   2.0000     -10.221128      -278.1310
   8   2.0000     -10.220381      -278.1107
   9   2.0000     -10.219666      -278.0912
  10   2.0000     -10.180933      -277.0373
  11   2.0000     -10.180362      -277.0217
  12   2.0000     -10.178126      -276.9609
  13   2.0000      -1.042926       -28.3795
  14   2.0000      -1.034647       -28.1542
  15   2.0000      -1.014158       -27.5966
  16   2.0000      -0.984295       -26.7840
  17   2.0000      -0.778575       -21.1861
  18   2.0000      -0.776028       -21.1168
  19   2.0000      -0.765426       -20.8283
  20   2.0000      -0.726883       -19.7795
  21   2.0000      -0.674567       -18.3559
  22   2.0000      -0.602900       -16.4057
  23   2.0000      -0.594091       -16.1660
  24   2.0000      -0.592721       -16.1287
  25   2.0000      -0.553025       -15.0486
  26   2.0000      -0.530389       -14.4326
  27   2.0000      -0.508060       -13.8250
  28   2.0000      -0.499886       -13.6026
  29   2.0000      -0.486738       -13.2448
  30   2.0000      -0.456252       -12.4152
  31   2.0000      -0.451672       -12.2906
  32   2.0000      -0.437678       -11.9098
  33   2.0000      -0.431598       -11.7444
  34   2.0000      -0.420727       -11.4486
  35   2.0000      -0.412972       -11.2375
  36   2.0000      -0.403193       -10.9714
  37   2.0000      -0.394777       -10.7424
  38   2.0000      -0.371763       -10.1162
  39   2.0000      -0.363972        -9.9042
  40   2.0000      -0.358077        -9.7438
  41   2.0000      -0.349078        -9.4989
  42   2.0000      -0.338963        -9.2237
  43   2.0000      -0.335122        -9.1191
  44   2.0000      -0.307501        -8.3675
  45   2.0000      -0.300986        -8.1903
  46   2.0000      -0.295959        -8.0534
  47   2.0000      -0.276396        -7.5211
  48   2.0000      -0.255364        -6.9488
  49   2.0000      -0.248176        -6.7532
  50   2.0000      -0.231984        -6.3126
  51   0.0000       0.045907         1.2492
  52   0.0000       0.079498         2.1633
  53   0.0000       0.093720         2.5502
  54   0.0000       0.110668         3.0114
  55   0.0000       0.113893         3.0992

MULLIKEN ATOMIC CHARGES
-----------------------
   0 C :    0.302190
   1 C :   -0.263582
   2 C :   -0.326564
   3 C :   -0.011988
   4 O :   -0.508665
   5 H :    0.157819
   6 H :    0.142304
   7 H :    0.151131
   8 H :    0.134496
   9 H :    0.179752
  10 H :    0.140369
  11 H :    0.143003
  12 C :    0.020210
  13 H :    0.158342
  14 H :    0.135412
  15 O :   -0.532340
  16 C :    0.086493
  17 C :    0.083982
  18 C :   -0.308046
  19 C :    0.000019
  20 O :   -0.518573
  21 H :    0.145601
  22 H :    0.139612
  23 O :   -0.611104
  24 H :    0.124301
  25 H :    0.178157
  26 H :    0.158181
  27 H :    0.135168
  28 H :    0.364320
Sum of atomic charges:   -0.0000000

LOEWDIN ATOMIC CHARGES
----------------------
   0 C :    0.177423
   1 C :   -0.229569
   2 C :   -0.226503
   3 C :   -0.035374
   4 O :   -0.323419
   5 H :    0.108607
   6 H :    0.114665
   7 H :    0.119304
   8 H :    0.110830
   9 H :    0.120185
  10 H :    0.099933
  11 H :    0.102565
  12 C :   -0.034045
  13 H :    0.113965
  14 H :    0.106227
  15 O :   -0.323791
  16 C :    0.031252
  17 C :    0.034306
  18 C :   -0.244297
  19 C :   -0.022310
  20 O :   -0.319619
  21 H :    0.111512
  22 H :    0.097554
  23 O :   -0.416442
  24 H :    0.104731
  25 H :    0.127166
  26 H :    0.111167
  27 H :    0.097651
  28 H :    0.286324

  Mayer bond orders larger than 0.100000
B(  0-C ,  1-C ) :   0.9190 B(  0-C ,  4-O ) :   0.9017 B(  0-C ,  5-H ) :   0.9383
B(  0-C , 15-O ) :   0.8908 B(  1-C ,  2-C ) :   0.9564 B(  1-C ,  6-H ) :   0.9339
B(  1-C ,  7-H ) :   0.9226 B(  2-C ,  3-C ) :   0.9458 B(  2-C ,  8-H ) :   0.9460
B(  2-C ,  9-H ) :   0.9263 B(  3-C ,  4-O ) :   0.8457 B(  3-C , 10-H ) :   0.9347
B(  3-C , 11-H ) :   0.9392 B( 12-C , 13-H ) :   0.9266 B( 12-C , 14-H ) :   0.8988
B( 12-C , 15-O ) :   0.8360 B( 12-C , 16-C ) :   0.9177 B( 16-C , 17-C ) :   0.9214
B( 16-C , 20-O ) :   0.8813 B( 16-C , 21-H ) :   0.9265 B( 17-C , 18-C ) :   0.9238
B( 17-C , 22-H ) :   0.9254 B( 17-C , 23-O ) :   0.8665 B( 18-C , 19-C ) :   0.9476
B( 18-C , 24-H ) :   0.9425 B( 18-C , 25-H ) :   0.9245 B( 19-C , 20-O ) :   0.8421
B( 19-C , 26-H ) :   0.9306 B( 19-C , 27-H ) :   0.9369 B( 23-O , 28-H ) :   0.8011

FINAL SINGLE POINT ENERGY      -652.854193582747

DIPOLE MOMENT
-------------
                                X             Y             Z
Electronic contribution:     -3.26972      -2.56260       1.42212
Nuclear contribution   :      3.86217       4.18852      -2.42435
                        -----------------------------------------
Total Dipole Moment    :      0.59245       1.62592      -1.00223
                        -----------------------------------------
Magnitude (a.u.)       :      1.99977
Magnitude (Debye)      :      5.08300

Rotational constants in cm-1:     0.049345     0.017613     0.015996
Rotational constants in MHz :  1479.329252   528.024255   479.561774

                             ****ORCA TERMINATED NORMALLY****
TOTAL RUN TIME: 0 days 1 hours 35 minutes 56 seconds 336 msec
