                         Program Version 4.2.0 -  RELEASE  -
|  1> # Test redundant internal optimization
|  2> #
|  3> ! RKS B3LYP  Opt TightSCF SmallPrint
|  4>
|  5> %basis
|  6>         Basis "6-31G"
|  7> end
|  8>
|  9> %geom
| 10> Constraints
| 11> { D 4  0  15  12  225.0   C } # D for Dihedral angle
| 12> { D 0  15  12  16  45.0   C } # D for Dihedral angle
| 13> { D 0  4  3  2   C } # D for Dihedral angle
| 14> { D 4  3  2  1   C } # D for Dihedral angle
| 15> { D 3  2  1  0   C } # D for Dihedral angle
| 16> { D 2  1  0  4   C } # D for Dihedral angle
| 17> { D 1  0  4  3   C } # D for Dihedral angle
| 18> { D 16  20  19  18   C } # D for Dihedral angle
| 19> { D 20  19  18  17   C } # D for Dihedral angle
| 20> { D 19  18  17  16   C } # D for Dihedral angle
| 21> { D 18  17  16  20   C } # D for Dihedral angle
| 22> { D 17  16  20  19   C } # D for Dihedral angle
| 23> { D 15  12  16  20   C } # D for Dihedral angle
| 24> end
| 25> end
| 26>
| 27>
| 28> #%pal
| 29> #nprocs 8
| 30> #end
| 31>
| 32> * xyz 0 1
| 33> C  -21.048   26.222   46.251
| 34> C  -20.361   27.558   45.944
| 35> C  -20.329   28.222   47.341
| 36> C  -20.110   27.022   48.296
| 37> O  -20.473   25.807   47.535
| 38> H  -20.833   25.428   45.533
| 39> H  -19.344   27.382   45.576
| 40> H  -20.898   28.157   45.201
| 41> H  -19.543   28.978   47.434
| 42> H  -21.289   28.710   47.548
| 43> H  -20.733   27.082   49.195
| 44> H  -19.064   26.913   48.597
| 45> C  -23.415   25.773   45.218
| 46> H  -24.469   25.716   45.518
| 47> H  -23.349   26.399   44.319
| 48> O  -22.586   26.394   46.375
| 49> C  -22.938   24.344   44.836
| 50> C  -23.156   23.358   45.989
| 51> C  -24.668   23.054   45.860
| 52> C  -24.903   23.087   44.329
| 53> O  -23.753   23.807   43.742
| 54> H  -21.910   24.396   44.473
| 55> H  -22.564   22.451   45.824
| 56> O  -22.775   23.946   47.376
| 57> H  -24.947   22.094   46.305
| 58> H  -25.252   23.837   46.358
| 59> H  -25.828   23.606   44.058
| 60> H  -24.917   22.087   43.888
| 61> H  -23.357   24.856   47.561
| 62> *
| 63>
| 64>                          ****END OF INPUT****
 Total Charge           Charge          ....    0
 Multiplicity           Mult            ....    1
 Number of Electrons    NEL             ....  102
FINAL SINGLE POINT ENERGY      -652.823660205473
FINAL SINGLE POINT ENERGY      -652.849502390927
FINAL SINGLE POINT ENERGY      -652.856500664725
FINAL SINGLE POINT ENERGY      -652.859083823942
FINAL SINGLE POINT ENERGY      -652.859809505924
FINAL SINGLE POINT ENERGY      -652.860053083288
FINAL SINGLE POINT ENERGY      -652.860104580069
FINAL SINGLE POINT ENERGY      -652.860113376086
FINAL SINGLE POINT ENERGY      -652.860114630077
                    ***********************HURRAY********************

CARTESIAN COORDINATES (ANGSTROEM)
---------------------------------
  C    -20.968341   26.193564   46.236373
  C    -20.300530   27.538254   45.953346
  C    -20.472385   28.269595   47.305410
  C    -20.334237   27.131345   48.337915
  O    -20.556641   25.870030   47.576876
  H    -20.659423   25.368990   45.594319
  H    -19.240367   27.376708   45.725151
  H    -20.764071   28.067076   45.116598
  H    -19.729866   29.059219   47.453633
  H    -21.469491   28.716139   47.356068
  H    -21.070490   27.185197   49.143543
  H    -19.330417   27.060467   48.766084
  C    -23.254510   25.747418   45.200595
  H    -24.268204   25.825594   45.599979
  H    -23.205158   26.351322   44.285219
  O    -22.419157   26.350901   46.245071
  C    -22.933323   24.292215   44.822125
  C    -23.153113   23.259937   45.942490
  C    -24.702705   23.099787   45.923683
  C    -25.051218   23.241938   44.428545
  O    -23.875525   23.896224   43.776000
  H    -21.940091   24.208803   44.374192
  H    -22.692611   22.313895   45.640132
  O    -22.593509   23.567229   47.230553
  H    -25.011686   22.138144   46.341491
  H    -25.157902   23.889133   46.532415
  H    -25.937969   23.856185   44.245008
  H    -25.181160   22.276236   43.932704
  H    -22.537901   24.534455   47.394486

 Multiplicity           Mult            ....    1
 Number of Electrons    NEL             ....  102
 Basis Dimension        Dim             ....  149

ORBITAL ENERGIES
----------------

  NO   OCC          E(Eh)            E(eV)
   0   2.0000     -19.153892      -521.2039
   1   2.0000     -19.147990      -521.0433
   2   2.0000     -19.143792      -520.9291
   3   2.0000     -19.119684      -520.2731
   4   2.0000     -10.287609      -279.9401
   5   2.0000     -10.237215      -278.5688
   6   2.0000     -10.236898      -278.5602
   7   2.0000     -10.233631      -278.4713
   8   2.0000     -10.229521      -278.3594
   9   2.0000     -10.228846      -278.3411
  10   2.0000     -10.191130      -277.3147
  11   2.0000     -10.189580      -277.2726
  12   2.0000     -10.181872      -277.0628
  13   2.0000      -1.060856       -28.8674
  14   2.0000      -1.027447       -27.9583
  15   2.0000      -1.001462       -27.2512
  16   2.0000      -0.996666       -27.1207
  17   2.0000      -0.791837       -21.5470
  18   2.0000      -0.774144       -21.0655
  19   2.0000      -0.767271       -20.8785
  20   2.0000      -0.738304       -20.0903
  21   2.0000      -0.680537       -18.5183
  22   2.0000      -0.610382       -16.6093
  23   2.0000      -0.603760       -16.4291
  24   2.0000      -0.598386       -16.2829
  25   2.0000      -0.570239       -15.5170
  26   2.0000      -0.527474       -14.3533
  27   2.0000      -0.525601       -14.3023
  28   2.0000      -0.495123       -13.4730
  29   2.0000      -0.488028       -13.2799
  30   2.0000      -0.466524       -12.6948
  31   2.0000      -0.459531       -12.5045
  32   2.0000      -0.451641       -12.2898
  33   2.0000      -0.429597       -11.6899
  34   2.0000      -0.424808       -11.5596
  35   2.0000      -0.415941       -11.3183
  36   2.0000      -0.404560       -11.0087
  37   2.0000      -0.395220       -10.7545
  38   2.0000      -0.378949       -10.3117
  39   2.0000      -0.372919       -10.1476
  40   2.0000      -0.361995        -9.8504
  41   2.0000      -0.358181        -9.7466
  42   2.0000      -0.350896        -9.5484
  43   2.0000      -0.335753        -9.1363
  44   2.0000      -0.321601        -8.7512
  45   2.0000      -0.316991        -8.6258
  46   2.0000      -0.295553        -8.0424
  47   2.0000      -0.272450        -7.4138
  48   2.0000      -0.263518        -7.1707
  49   2.0000      -0.248873        -6.7722
  50   2.0000      -0.240904        -6.5553
  51   0.0000       0.058191         1.5835
  52   0.0000       0.078384         2.1329
  53   0.0000       0.090250         2.4558
  54   0.0000       0.095256         2.5920
  55   0.0000       0.105527         2.8715

MULLIKEN ATOMIC CHARGES
-----------------------
   0 C :    0.267161
   1 C :   -0.251292
   2 C :   -0.299817
   3 C :   -0.006377
   4 O :   -0.499929
   5 H :    0.156813
   6 H :    0.148094
   7 H :    0.147942
   8 H :    0.144104
   9 H :    0.165079
  10 H :    0.155830
  11 H :    0.147609
  12 C :   -0.020455
  13 H :    0.158670
  14 H :    0.153407
  15 O :   -0.539880
  16 C :    0.036434
  17 C :    0.125663
  18 C :   -0.308027
  19 C :   -0.020118
  20 O :   -0.523519
  21 H :    0.154944
  22 H :    0.150927
  23 O :   -0.626147
  24 H :    0.152201
  25 H :    0.146905
  26 H :    0.142098
  27 H :    0.151431
  28 H :    0.390247
Sum of atomic charges:   -0.0000000

LOEWDIN ATOMIC CHARGES
----------------------
   0 C :    0.168828
   1 C :   -0.219550
   2 C :   -0.216210
   3 C :   -0.026472
   4 O :   -0.307994
   5 H :    0.104798
   6 H :    0.115091
   7 H :    0.118903
   8 H :    0.115542
   9 H :    0.120629
  10 H :    0.110055
  11 H :    0.105553
  12 C :   -0.048873
  13 H :    0.115501
  14 H :    0.105821
  15 O :   -0.342986
  16 C :    0.002362
  17 C :    0.041343
  18 C :   -0.238828
  19 C :   -0.031696
  20 O :   -0.322752
  21 H :    0.109190
  22 H :    0.109396
  23 O :   -0.418469
  24 H :    0.122049
  25 H :    0.111140
  26 H :    0.102113
  27 H :    0.107369
  28 H :    0.288147

  Mayer bond orders larger than 0.100000
B(  0-C ,  1-C ) :   0.9421 B(  0-C ,  4-O ) :   0.9209 B(  0-C ,  5-H ) :   0.9109
B(  0-C , 15-O ) :   0.8106 B(  1-C ,  2-C ) :   0.9538 B(  1-C ,  6-H ) :   0.9353
B(  1-C ,  7-H ) :   0.9387 B(  2-C ,  3-C ) :   0.9535 B(  2-C ,  8-H ) :   0.9448
B(  2-C ,  9-H ) :   0.9431 B(  3-C ,  4-O ) :   0.8284 B(  3-C , 10-H ) :   0.9351
B(  3-C , 11-H ) :   0.9396 B( 12-C , 13-H ) :   0.9371 B( 12-C , 14-H ) :   0.9234
B( 12-C , 15-O ) :   0.8164 B( 12-C , 16-C ) :   0.8881 B( 16-C , 17-C ) :   0.8984
B( 16-C , 20-O ) :   0.8408 B( 16-C , 21-H ) :   0.9261 B( 17-C , 18-C ) :   0.9004
B( 17-C , 22-H ) :   0.9325 B( 17-C , 23-O ) :   0.9387 B( 18-C , 19-C ) :   0.9373
B( 18-C , 24-H ) :   0.9449 B( 18-C , 25-H ) :   0.9433 B( 19-C , 20-O ) :   0.8306
B( 19-C , 26-H ) :   0.9343 B( 19-C , 27-H ) :   0.9385 B( 23-O , 28-H ) :   0.7334

FINAL SINGLE POINT ENERGY      -652.860114823041

DIPOLE MOMENT
-------------
                                X             Y             Z
Electronic contribution:      0.38768      -2.83031      -0.40107
Nuclear contribution   :     -0.43540       3.82518       0.09336
                        -----------------------------------------
Total Dipole Moment    :     -0.04772       0.99487      -0.30771
                        -----------------------------------------
Magnitude (a.u.)       :      1.04246
Magnitude (Debye)      :      2.64973

Rotational constants in cm-1:     0.063335     0.014104     0.012619
Rotational constants in MHz :  1898.739079   422.839515   378.317535

                             ****ORCA TERMINATED NORMALLY****
TOTAL RUN TIME: 0 days 1 hours 15 minutes 13 seconds 466 msec
