                         Program Version 4.2.0 -  RELEASE  -
|  1> # Test redundant internal optimization
|  2> #
|  3> ! RKS B3LYP  Opt TightSCF SmallPrint
|  4>
|  5> %basis
|  6>         Basis "6-31G"
|  7> end
|  8>
|  9> %geom
| 10> Constraints
| 11> { D 4  0  15  12  120.0   C } # D for Dihedral angle
| 12> { D 0  15  12  16  225.0   C } # D for Dihedral angle
| 13> { D 0  4  3  2   C } # D for Dihedral angle
| 14> { D 4  3  2  1   C } # D for Dihedral angle
| 15> { D 3  2  1  0   C } # D for Dihedral angle
| 16> { D 2  1  0  4   C } # D for Dihedral angle
| 17> { D 1  0  4  3   C } # D for Dihedral angle
| 18> { D 16  20  19  18   C } # D for Dihedral angle
| 19> { D 20  19  18  17   C } # D for Dihedral angle
| 20> { D 19  18  17  16   C } # D for Dihedral angle
| 21> { D 18  17  16  20   C } # D for Dihedral angle
| 22> { D 17  16  20  19   C } # D for Dihedral angle
| 23> { D 15  12  16  20   C } # D for Dihedral angle
| 24> end
| 25> end
| 26>
| 27>
| 28> #%pal
| 29> #nprocs 8
| 30> #end
| 31>
| 32> * xyz 0 1
| 33> C  -21.048   26.222   46.251
| 34> C  -20.361   27.558   45.944
| 35> C  -20.329   28.222   47.341
| 36> C  -20.110   27.022   48.296
| 37> O  -20.473   25.807   47.535
| 38> H  -20.833   25.428   45.533
| 39> H  -19.344   27.382   45.576
| 40> H  -20.898   28.157   45.201
| 41> H  -19.543   28.978   47.434
| 42> H  -21.289   28.710   47.548
| 43> H  -20.733   27.082   49.195
| 44> H  -19.064   26.913   48.597
| 45> C  -23.119   27.818   46.058
| 46> H  -22.280   28.525   46.049
| 47> H  -23.595   27.838   45.069
| 48> O  -22.586   26.394   46.375
| 49> C  -24.164   28.314   47.096
| 50> C  -25.328   27.325   47.230
| 51> C  -24.711   26.236   48.141
| 52> C  -23.792   27.048   49.087
| 53> O  -23.572   28.359   48.437
| 54> H  -24.463   29.332   46.844
| 55> H  -26.176   27.809   47.726
| 56> O  -25.813   26.764   45.865
| 57> H  -25.466   25.660   48.685
| 58> H  -24.122   25.532   47.540
| 59> H  -22.824   26.562   49.251
| 60> H  -24.259   27.244   50.056
| 61> H  -24.978   26.275   45.351
| 62> *
| 63>
| 64>                          ****END OF INPUT****
 Total Charge           Charge          ....    0
 Multiplicity           Mult            ....    1
 Number of Electrons    NEL             ....  102
FINAL SINGLE POINT ENERGY      -652.820575269266
FINAL SINGLE POINT ENERGY      -652.845648006011
FINAL SINGLE POINT ENERGY      -652.855815382775
FINAL SINGLE POINT ENERGY      -652.857921178703
FINAL SINGLE POINT ENERGY      -652.858307564343
FINAL SINGLE POINT ENERGY      -652.858372105815
FINAL SINGLE POINT ENERGY      -652.858377826627
                    ***********************HURRAY********************

CARTESIAN COORDINATES (ANGSTROEM)
---------------------------------
  C    -21.109904   26.373136   46.256738
  C    -20.198514   27.559362   45.923081
  C    -20.068954   28.266181   47.301542
  C    -20.074732   27.078692   48.291016
  O    -20.637591   25.925412   47.542572
  H    -20.997971   25.517354   45.588324
  H    -19.229631   27.160964   45.604755
  H    -20.572846   28.207646   45.126525
  H    -19.154589   28.862468   47.375759
  H    -20.922934   28.920786   47.495997
  H    -20.695010   27.267073   49.169969
  H    -19.070382   26.783999   48.607790
  C    -23.155341   27.919697   46.037682
  H    -22.420814   28.728611   46.036382
  H    -23.632616   27.887260   45.049194
  O    -22.539903   26.629183   46.311156
  C    -24.211622   28.238058   47.091867
  C    -25.373703   27.235112   47.202209
  C    -24.770889   26.150849   48.146282
  C    -23.892116   26.979545   49.104942
  O    -23.664838   28.296796   48.441964
  H    -24.588416   29.244091   46.868020
  H    -26.241741   27.720557   47.652718
  O    -25.841466   26.727658   45.928780
  H    -25.547880   25.585838   48.669766
  H    -24.155060   25.468261   47.557366
  H    -22.924260   26.508901   49.288691
  H    -24.387936   27.192013   50.056970
  H    -25.191340   26.080496   45.582941

 Multiplicity           Mult            ....    1
 Number of Electrons    NEL             ....  102
 Basis Dimension        Dim             ....  149

ORBITAL ENERGIES
----------------

  NO   OCC          E(Eh)            E(eV)
   0   2.0000     -19.146206      -520.9948
   1   2.0000     -19.142550      -520.8953
   2   2.0000     -19.136757      -520.7376
   3   2.0000     -19.134955      -520.6886
   4   2.0000     -10.285413      -279.8803
   5   2.0000     -10.233746      -278.4744
   6   2.0000     -10.233452      -278.4664
   7   2.0000     -10.228699      -278.3371
   8   2.0000     -10.226468      -278.2763
   9   2.0000     -10.217773      -278.0397
  10   2.0000     -10.196751      -277.4677
  11   2.0000     -10.190873      -277.3077
  12   2.0000     -10.173806      -276.8433
  13   2.0000      -1.054064       -28.6825
  14   2.0000      -1.024521       -27.8786
  15   2.0000      -1.007131       -27.4054
  16   2.0000      -0.994763       -27.0689
  17   2.0000      -0.791016       -21.5246
  18   2.0000      -0.773996       -21.0615
  19   2.0000      -0.763699       -20.7813
  20   2.0000      -0.733913       -19.9708
  21   2.0000      -0.680775       -18.5248
  22   2.0000      -0.606464       -16.5027
  23   2.0000      -0.599452       -16.3119
  24   2.0000      -0.596710       -16.2373
  25   2.0000      -0.561877       -15.2895
  26   2.0000      -0.530297       -14.4301
  27   2.0000      -0.508006       -13.8235
  28   2.0000      -0.498150       -13.5554
  29   2.0000      -0.492393       -13.3987
  30   2.0000      -0.466233       -12.6869
  31   2.0000      -0.457972       -12.4620
  32   2.0000      -0.445686       -12.1277
  33   2.0000      -0.430209       -11.7066
  34   2.0000      -0.418742       -11.3946
  35   2.0000      -0.417200       -11.3526
  36   2.0000      -0.400310       -10.8930
  37   2.0000      -0.395084       -10.7508
  38   2.0000      -0.387459       -10.5433
  39   2.0000      -0.365587        -9.9481
  40   2.0000      -0.362913        -9.8754
  41   2.0000      -0.354191        -9.6380
  42   2.0000      -0.349485        -9.5100
  43   2.0000      -0.322904        -8.7867
  44   2.0000      -0.316285        -8.6065
  45   2.0000      -0.306987        -8.3536
  46   2.0000      -0.295128        -8.0308
  47   2.0000      -0.276354        -7.5200
  48   2.0000      -0.259441        -7.0597
  49   2.0000      -0.254770        -6.9326
  50   2.0000      -0.237513        -6.4631
  51   0.0000       0.068083         1.8526
  52   0.0000       0.080526         2.1912
  53   0.0000       0.095261         2.5922
  54   0.0000       0.099190         2.6991
  55   0.0000       0.103135         2.8064

MULLIKEN ATOMIC CHARGES
-----------------------
   0 C :    0.328130
   1 C :   -0.310660
   2 C :   -0.312360
   3 C :   -0.006657
   4 O :   -0.502160
   5 H :    0.156665
   6 H :    0.157564
   7 H :    0.149515
   8 H :    0.144255
   9 H :    0.176210
  10 H :    0.156341
  11 H :    0.143511
  12 C :   -0.023582
  13 H :    0.142883
  14 H :    0.141663
  15 O :   -0.550942
  16 C :    0.104751
  17 C :    0.087841
  18 C :   -0.306004
  19 C :   -0.016522
  20 O :   -0.531188
  21 H :    0.141961
  22 H :    0.157969
  23 O :   -0.609399
  24 H :    0.140047
  25 H :    0.175606
  26 H :    0.161211
  27 H :    0.137915
  28 H :    0.365437
Sum of atomic charges:   -0.0000000

LOEWDIN ATOMIC CHARGES
----------------------
   0 C :    0.184138
   1 C :   -0.233005
   2 C :   -0.222702
   3 C :   -0.028550
   4 O :   -0.317240
   5 H :    0.105483
   6 H :    0.123537
   7 H :    0.116143
   8 H :    0.115850
   9 H :    0.121138
  10 H :    0.108579
  11 H :    0.103016
  12 C :   -0.046376
  13 H :    0.105190
  14 H :    0.102267
  15 O :   -0.341268
  16 C :    0.016948
  17 C :    0.038094
  18 C :   -0.240332
  19 C :   -0.026987
  20 O :   -0.330747
  21 H :    0.110821
  22 H :    0.114514
  23 O :   -0.412796
  24 H :    0.113449
  25 H :    0.127194
  26 H :    0.110779
  27 H :    0.099283
  28 H :    0.283579

  Mayer bond orders larger than 0.100000
B(  0-C ,  1-C ) :   0.9354 B(  0-C ,  4-O ) :   0.9206 B(  0-C ,  5-H ) :   0.9327
B(  0-C , 15-O ) :   0.8486 B(  1-C ,  2-C ) :   0.9498 B(  1-C ,  6-H ) :   0.9335
B(  1-C ,  7-H ) :   0.9293 B(  2-C ,  3-C ) :   0.9514 B(  2-C ,  8-H ) :   0.9450
B(  2-C ,  9-H ) :   0.9286 B(  3-C ,  4-O ) :   0.8374 B(  3-C , 10-H ) :   0.9281
B(  3-C , 11-H ) :   0.9402 B( 12-C , 13-H ) :   0.9105 B( 12-C , 14-H ) :   0.9126
B( 12-C , 15-O ) :   0.8369 B( 12-C , 16-C ) :   0.8995 B( 16-C , 17-C ) :   0.8896
B( 16-C , 20-O ) :   0.8771 B( 16-C , 21-H ) :   0.9273 B( 17-C , 18-C ) :   0.9336
B( 17-C , 22-H ) :   0.9369 B( 17-C , 23-O ) :   0.8993 B( 18-C , 19-C ) :   0.9473
B( 18-C , 24-H ) :   0.9416 B( 18-C , 25-H ) :   0.9239 B( 19-C , 20-O ) :   0.8302
B( 19-C , 26-H ) :   0.9221 B( 19-C , 27-H ) :   0.9380 B( 23-O , 28-H ) :   0.7926

FINAL SINGLE POINT ENERGY      -652.858377987783

DIPOLE MOMENT
-------------
                                X             Y             Z
Electronic contribution:     -3.03287      -1.85620      -0.94530
Nuclear contribution   :      3.96884       2.24400       0.65011
                        -----------------------------------------
Total Dipole Moment    :      0.93596       0.38780      -0.29519
                        -----------------------------------------
Magnitude (a.u.)       :      1.05525
Magnitude (Debye)      :      2.68223

Rotational constants in cm-1:     0.047566     0.018295     0.016756
Rotational constants in MHz :  1425.979855   548.472249   502.320493

                             ****ORCA TERMINATED NORMALLY****
TOTAL RUN TIME: 0 days 0 hours 32 minutes 37 seconds 772 msec
