                         Program Version 4.2.0 -  RELEASE  -
|  1> # Test redundant internal optimization
|  2> #
|  3> ! RKS B3LYP  Opt TightSCF SmallPrint
|  4>
|  5> %basis
|  6>         Basis "6-31G"
|  7> end
|  8>
|  9> %geom
| 10> Constraints
| 11> { D 4  0  15  12  315.0   C } # D for Dihedral angle
| 12> { D 0  15  12  16  255.0   C } # D for Dihedral angle
| 13> { D 0  4  3  2   C } # D for Dihedral angle
| 14> { D 4  3  2  1   C } # D for Dihedral angle
| 15> { D 3  2  1  0   C } # D for Dihedral angle
| 16> { D 2  1  0  4   C } # D for Dihedral angle
| 17> { D 1  0  4  3   C } # D for Dihedral angle
| 18> { D 16  20  19  18   C } # D for Dihedral angle
| 19> { D 20  19  18  17   C } # D for Dihedral angle
| 20> { D 19  18  17  16   C } # D for Dihedral angle
| 21> { D 18  17  16  20   C } # D for Dihedral angle
| 22> { D 17  16  20  19   C } # D for Dihedral angle
| 23> { D 15  12  16  20   C } # D for Dihedral angle
| 24> end
| 25> end
| 26>
| 27>
| 28> #%pal
| 29> #nprocs 8
| 30> #end
| 31>
| 32> * xyz 0 1
| 33> C  -21.048   26.222   46.251
| 34> C  -20.361   27.558   45.944
| 35> C  -20.329   28.222   47.341
| 36> C  -20.110   27.022   48.296
| 37> O  -20.473   25.807   47.535
| 38> H  -20.833   25.428   45.533
| 39> H  -19.344   27.382   45.576
| 40> H  -20.898   28.157   45.201
| 41> H  -19.543   28.978   47.434
| 42> H  -21.289   28.710   47.548
| 43> H  -20.733   27.082   49.195
| 44> H  -19.064   26.913   48.597
| 45> C  -23.319   25.255   47.135
| 46> H  -22.584   24.660   47.692
| 47> H  -24.037   25.672   47.853
| 48> O  -22.586   26.394   46.375
| 49> C  -24.098   24.304   46.185
| 50> C  -25.086   25.081   45.306
| 51> C  -24.150   25.654   44.215
| 52> C  -23.098   24.532   44.029
| 53> O  -23.184   23.671   45.229
| 54> H  -24.551   23.503   46.773
| 55> H  -25.817   24.395   44.866
| 56> O  -25.854   26.186   46.081
| 57> H  -24.676   25.891   43.285
| 58> H  -23.673   26.574   44.574
| 59> H  -22.079   24.922   43.939
| 60> H  -23.312   23.899   43.163
| 61> H  -25.140   26.885   46.531
| 62> *
| 63>
| 64>                          ****END OF INPUT****
 Total Charge           Charge          ....    0
 Multiplicity           Mult            ....    1
 Number of Electrons    NEL             ....  102
FINAL SINGLE POINT ENERGY      -652.836618524124
FINAL SINGLE POINT ENERGY      -652.860711476182
FINAL SINGLE POINT ENERGY      -652.865199125365
FINAL SINGLE POINT ENERGY      -652.867517765992
FINAL SINGLE POINT ENERGY      -652.867685982694
FINAL SINGLE POINT ENERGY      -652.867719582117
FINAL SINGLE POINT ENERGY      -652.867720769765
                    ***********************HURRAY********************

CARTESIAN COORDINATES (ANGSTROEM)
---------------------------------
  C    -21.019151   26.206048   46.303916
  C    -20.395652   27.573246   46.027742
  C    -20.360799   28.194980   47.441305
  C    -20.074429   26.983619   48.354455
  O    -20.412067   25.779743   47.543170
  H    -20.807942   25.413958   45.582165
  H    -19.384420   27.432827   45.629702
  H    -20.980113   28.159276   45.314861
  H    -19.600126   28.975628   47.538774
  H    -21.336404   28.631652   47.673828
  H    -20.678322   26.975577   49.265156
  H    -19.017998   26.888719   48.620526
  C    -23.189852   25.340326   47.127907
  H    -22.481882   24.751956   47.717555
  H    -23.885162   25.841301   47.811134
  O    -22.459374   26.395433   46.418900
  C    -23.979496   24.428075   46.194315
  C    -25.064497   25.112888   45.342092
  C    -24.241498   25.604814   44.112048
  C    -23.193589   24.485286   43.934601
  O    -23.150545   23.730784   45.215339
  H    -24.423504   23.646135   46.823720
  H    -25.820432   24.382659   45.046590
  O    -25.798573   26.155425   46.026514
  H    -24.867279   25.742009   43.225354
  H    -23.761509   26.553204   44.366134
  H    -22.193456   24.871358   43.714294
  H    -23.473771   23.768087   43.156859
  H    -25.217159   26.933988   46.153044

 Multiplicity           Mult            ....    1
 Number of Electrons    NEL             ....  102
 Basis Dimension        Dim             ....  149

ORBITAL ENERGIES
----------------

  NO   OCC          E(Eh)            E(eV)
   0   2.0000     -19.148667      -521.0617
   1   2.0000     -19.147329      -521.0253
   2   2.0000     -19.138294      -520.7795
   3   2.0000     -19.135956      -520.7158
   4   2.0000     -10.280806      -279.7550
   5   2.0000     -10.235113      -278.5116
   6   2.0000     -10.230943      -278.3981
   7   2.0000     -10.226358      -278.2733
   8   2.0000     -10.224579      -278.2249
   9   2.0000     -10.222540      -278.1694
  10   2.0000     -10.190365      -277.2939
  11   2.0000     -10.190024      -277.2847
  12   2.0000     -10.180140      -277.0157
  13   2.0000      -1.057586       -28.7784
  14   2.0000      -1.026199       -27.9243
  15   2.0000      -1.009001       -27.4563
  16   2.0000      -0.993373       -27.0311
  17   2.0000      -0.793633       -21.5958
  18   2.0000      -0.770904       -20.9774
  19   2.0000      -0.764683       -20.8081
  20   2.0000      -0.733205       -19.9515
  21   2.0000      -0.675191       -18.3729
  22   2.0000      -0.604765       -16.4565
  23   2.0000      -0.601780       -16.3753
  24   2.0000      -0.597181       -16.2501
  25   2.0000      -0.563621       -15.3369
  26   2.0000      -0.526979       -14.3398
  27   2.0000      -0.508861       -13.8468
  28   2.0000      -0.495382       -13.4800
  29   2.0000      -0.492473       -13.4009
  30   2.0000      -0.462690       -12.5904
  31   2.0000      -0.462242       -12.5783
  32   2.0000      -0.441701       -12.0193
  33   2.0000      -0.433151       -11.7866
  34   2.0000      -0.422713       -11.5026
  35   2.0000      -0.411437       -11.1958
  36   2.0000      -0.401814       -10.9339
  37   2.0000      -0.394105       -10.7241
  38   2.0000      -0.381340       -10.3768
  39   2.0000      -0.365669        -9.9504
  40   2.0000      -0.361103        -9.8261
  41   2.0000      -0.355800        -9.6818
  42   2.0000      -0.349063        -9.4985
  43   2.0000      -0.335038        -9.1168
  44   2.0000      -0.324450        -8.8287
  45   2.0000      -0.307903        -8.3785
  46   2.0000      -0.299089        -8.1386
  47   2.0000      -0.274432        -7.4677
  48   2.0000      -0.264561        -7.1991
  49   2.0000      -0.259003        -7.0478
  50   2.0000      -0.235555        -6.4098
  51   0.0000       0.069307         1.8859
  52   0.0000       0.077678         2.1137
  53   0.0000       0.094936         2.5833
  54   0.0000       0.100948         2.7469
  55   0.0000       0.108459         2.9513

MULLIKEN ATOMIC CHARGES
-----------------------
   0 C :    0.291917
   1 C :   -0.264585
   2 C :   -0.298992
   3 C :   -0.009695
   4 O :   -0.510578
   5 H :    0.167653
   6 H :    0.148023
   7 H :    0.154117
   8 H :    0.144547
   9 H :    0.158657
  10 H :    0.148308
  11 H :    0.148392
  12 C :   -0.048857
  13 H :    0.182168
  14 H :    0.142934
  15 O :   -0.545137
  16 C :    0.094554
  17 C :    0.090222
  18 C :   -0.310063
  19 C :   -0.009385
  20 O :   -0.522319
  21 H :    0.147515
  22 H :    0.161475
  23 O :   -0.607410
  24 H :    0.143553
  25 H :    0.159375
  26 H :    0.133486
  27 H :    0.144991
  28 H :    0.365134
Sum of atomic charges:   -0.0000000

LOEWDIN ATOMIC CHARGES
----------------------
   0 C :    0.176116
   1 C :   -0.215795
   2 C :   -0.216253
   3 C :   -0.029085
   4 O :   -0.320049
   5 H :    0.106258
   6 H :    0.115715
   7 H :    0.122352
   8 H :    0.115298
   9 H :    0.117422
  10 H :    0.105850
  11 H :    0.105962
  12 C :   -0.057430
  13 H :    0.125327
  14 H :    0.108764
  15 O :   -0.347425
  16 C :    0.011614
  17 C :    0.037275
  18 C :   -0.242817
  19 C :   -0.027269
  20 O :   -0.326217
  21 H :    0.113464
  22 H :    0.115853
  23 O :   -0.410830
  24 H :    0.115039
  25 H :    0.118664
  26 H :    0.096378
  27 H :    0.102678
  28 H :    0.283142

  Mayer bond orders larger than 0.100000
B(  0-C ,  1-C ) :   0.9466 B(  0-C ,  4-O ) :   0.9021 B(  0-C ,  5-H ) :   0.9135
B(  0-C , 15-O ) :   0.8360 B(  1-C ,  2-C ) :   0.9536 B(  1-C ,  6-H ) :   0.9386
B(  1-C ,  7-H ) :   0.9364 B(  2-C ,  3-C ) :   0.9563 B(  2-C ,  8-H ) :   0.9448
B(  2-C ,  9-H ) :   0.9449 B(  3-C ,  4-O ) :   0.8311 B(  3-C , 10-H ) :   0.9355
B(  3-C , 11-H ) :   0.9403 B( 12-C , 13-H ) :   0.9098 B( 12-C , 14-H ) :   0.9207
B( 12-C , 15-O ) :   0.8384 B( 12-C , 16-C ) :   0.9008 B( 16-C , 17-C ) :   0.8856
B( 16-C , 20-O ) :   0.8716 B( 16-C , 21-H ) :   0.9250 B( 17-C , 18-C ) :   0.9311
B( 17-C , 22-H ) :   0.9362 B( 17-C , 23-O ) :   0.9012 B( 18-C , 19-C ) :   0.9438
B( 18-C , 24-H ) :   0.9412 B( 18-C , 25-H ) :   0.9288 B( 19-C , 20-O ) :   0.8432
B( 19-C , 26-H ) :   0.9293 B( 19-C , 27-H ) :   0.9384 B( 23-O , 28-H ) :   0.7931

FINAL SINGLE POINT ENERGY      -652.867719250117

DIPOLE MOMENT
-------------
                                X             Y             Z
Electronic contribution:     -2.45839      -3.99540       0.75479
Nuclear contribution   :      3.13711       5.06787      -0.92460
                        -----------------------------------------
Total Dipole Moment    :      0.67873       1.07248      -0.16981
                        -----------------------------------------
Magnitude (a.u.)       :      1.28051
Magnitude (Debye)      :      3.25481

Rotational constants in cm-1:     0.050161     0.015383     0.014768
Rotational constants in MHz :  1503.779556   461.174088   442.737120

                             ****ORCA TERMINATED NORMALLY****
TOTAL RUN TIME: 0 days 0 hours 21 minutes 25 seconds 317 msec
