                         Program Version 4.2.0 -  RELEASE  -
|  1> # Test redundant internal optimization
|  2> #
|  3> ! RKS B3LYP  Opt TightSCF SmallPrint
|  4>
|  5> %basis
|  6>         Basis "6-31G"
|  7> end
|  8>
|  9> %geom
| 10> Constraints
| 11> { D 4  0  15  12  180.0   C } # D for Dihedral angle
| 12> { D 0  15  12  16  135.0   C } # D for Dihedral angle
| 13> { D 0  4  3  2   C } # D for Dihedral angle
| 14> { D 4  3  2  1   C } # D for Dihedral angle
| 15> { D 3  2  1  0   C } # D for Dihedral angle
| 16> { D 2  1  0  4   C } # D for Dihedral angle
| 17> { D 1  0  4  3   C } # D for Dihedral angle
| 18> { D 16  20  19  18   C } # D for Dihedral angle
| 19> { D 20  19  18  17   C } # D for Dihedral angle
| 20> { D 19  18  17  16   C } # D for Dihedral angle
| 21> { D 18  17  16  20   C } # D for Dihedral angle
| 22> { D 17  16  20  19   C } # D for Dihedral angle
| 23> { D 15  12  16  20   C } # D for Dihedral angle
| 24> end
| 25> end
| 26>
| 27>
| 28> #%pal
| 29> #nprocs 8
| 30> #end
| 31>
| 32> * xyz 0 1
| 33> C  -21.048   26.222   46.251
| 34> C  -20.361   27.558   45.944
| 35> C  -20.329   28.222   47.341
| 36> C  -20.110   27.022   48.296
| 37> O  -20.473   25.807   47.535
| 38> H  -20.833   25.428   45.533
| 39> H  -19.344   27.382   45.576
| 40> H  -20.898   28.157   45.201
| 41> H  -19.543   28.978   47.434
| 42> H  -21.289   28.710   47.548
| 43> H  -20.733   27.082   49.195
| 44> H  -19.064   26.913   48.597
| 45> C  -23.309   26.834   45.072
| 46> H  -23.576   27.895   45.147
| 47> H  -22.648   26.707   44.205
| 48> O  -22.586   26.394   46.375
| 49> C  -24.605   26.021   44.801
| 50> C  -24.322   24.514   44.773
| 51> C  -24.246   24.182   46.282
| 52> C  -25.299   25.131   46.905
| 53> O  -25.556   26.190   45.904
| 54> H  -25.087   26.407   43.901
| 55> H  -25.157   23.984   44.302
| 56> O  -23.019   24.152   44.010
| 57> H  -24.455   23.129   46.496
| 58> H  -23.244   24.409   46.668
| 59> H  -24.949   25.594   47.835
| 60> H  -26.252   24.630   47.096
| 61> H  -22.169   24.672   44.465
| 62> *
| 63>
| 64>                          ****END OF INPUT****
 Total Charge           Charge          ....    0
 Multiplicity           Mult            ....    1
 Number of Electrons    NEL             ....  102
FINAL SINGLE POINT ENERGY      -652.826866723179
FINAL SINGLE POINT ENERGY      -652.850745399414
FINAL SINGLE POINT ENERGY      -652.855415838222
FINAL SINGLE POINT ENERGY      -652.857831585075
FINAL SINGLE POINT ENERGY      -652.858280450035
FINAL SINGLE POINT ENERGY      -652.858448084524
FINAL SINGLE POINT ENERGY      -652.858487024340
FINAL SINGLE POINT ENERGY      -652.858501016985
FINAL SINGLE POINT ENERGY      -652.858505399368
                    ***********************HURRAY********************

CARTESIAN COORDINATES (ANGSTROEM)
---------------------------------
  C    -21.052120   26.291698   46.196977
  C    -20.332251   27.610121   45.921186
  C    -20.349070   28.283981   47.315693
  C    -20.193895   27.087282   48.275782
  O    -20.552670   25.884299   47.475617
  H    -20.840433   25.490381   45.479721
  H    -19.305069   27.396372   45.602753
  H    -20.809946   28.216348   45.147233
  H    -19.548847   29.020709   47.432997
  H    -21.308258   28.785397   47.474943
  H    -20.858562   27.137232   49.141075
  H    -19.164177   26.938981   48.612940
  C    -23.205073   26.887358   45.127346
  H    -23.461165   27.948286   45.226196
  H    -22.575330   26.752794   44.237644
  O    -22.493971   26.467308   46.335416
  C    -24.484399   26.082684   44.919511
  C    -24.304939   24.562366   44.765559
  C    -24.274374   24.089793   46.251291
  C    -25.269123   25.056402   46.931292
  O    -25.432297   26.213092   46.016944
  H    -24.980380   26.509517   44.038224
  H    -25.169020   24.146906   44.240343
  O    -23.143107   24.184553   43.979117
  H    -24.569689   23.041412   46.357155
  H    -23.269880   24.231312   46.657690
  H    -24.901709   25.420220   47.893962
  H    -26.261292   24.613688   47.062904
  H    -22.392954   23.975509   44.570491

 Multiplicity           Mult            ....    1
 Number of Electrons    NEL             ....  102
 Basis Dimension        Dim             ....  149

ORBITAL ENERGIES
----------------

  NO   OCC          E(Eh)            E(eV)
   0   2.0000     -19.147414      -521.0276
   1   2.0000     -19.145069      -520.9638
   2   2.0000     -19.142674      -520.8986
   3   2.0000     -19.129920      -520.5516
   4   2.0000     -10.287337      -279.9327
   5   2.0000     -10.236629      -278.5528
   6   2.0000     -10.230134      -278.3761
   7   2.0000     -10.228477      -278.3310
   8   2.0000     -10.227318      -278.2995
   9   2.0000     -10.218179      -278.0508
  10   2.0000     -10.192387      -277.3490
  11   2.0000     -10.191151      -277.3153
  12   2.0000     -10.179579      -277.0004
  13   2.0000      -1.059250       -28.8237
  14   2.0000      -1.026568       -27.9343
  15   2.0000      -1.009322       -27.4650
  16   2.0000      -0.995703       -27.0945
  17   2.0000      -0.791369       -21.5342
  18   2.0000      -0.771876       -21.0038
  19   2.0000      -0.764453       -20.8018
  20   2.0000      -0.734962       -19.9993
  21   2.0000      -0.677537       -18.4367
  22   2.0000      -0.606726       -16.5099
  23   2.0000      -0.601963       -16.3802
  24   2.0000      -0.598323       -16.2812
  25   2.0000      -0.562804       -15.3147
  26   2.0000      -0.527819       -14.3627
  27   2.0000      -0.504026       -13.7152
  28   2.0000      -0.502490       -13.6735
  29   2.0000      -0.494820       -13.4647
  30   2.0000      -0.471290       -12.8245
  31   2.0000      -0.457711       -12.4549
  32   2.0000      -0.444174       -12.0866
  33   2.0000      -0.428589       -11.6625
  34   2.0000      -0.423513       -11.5244
  35   2.0000      -0.415780       -11.3140
  36   2.0000      -0.405769       -11.0415
  37   2.0000      -0.398434       -10.8419
  38   2.0000      -0.382398       -10.4056
  39   2.0000      -0.364413        -9.9162
  40   2.0000      -0.362228        -9.8567
  41   2.0000      -0.357102        -9.7172
  42   2.0000      -0.350304        -9.5323
  43   2.0000      -0.323342        -8.7986
  44   2.0000      -0.314375        -8.5546
  45   2.0000      -0.310575        -8.4512
  46   2.0000      -0.307123        -8.3572
  47   2.0000      -0.265468        -7.2237
  48   2.0000      -0.264149        -7.1879
  49   2.0000      -0.260250        -7.0818
  50   2.0000      -0.233890        -6.3645
  51   0.0000       0.050919         1.3856
  52   0.0000       0.079916         2.1746
  53   0.0000       0.094165         2.5624
  54   0.0000       0.098622         2.6836
  55   0.0000       0.108340         2.9481

MULLIKEN ATOMIC CHARGES
-----------------------
   0 C :    0.298763
   1 C :   -0.276819
   2 C :   -0.299188
   3 C :   -0.001085
   4 O :   -0.508529
   5 H :    0.126269
   6 H :    0.148399
   7 H :    0.149625
   8 H :    0.144975
   9 H :    0.164002
  10 H :    0.156780
  11 H :    0.144167
  12 C :   -0.019618
  13 H :    0.151543
  14 H :    0.139552
  15 O :   -0.516896
  16 C :    0.097282
  17 C :    0.091530
  18 C :   -0.331805
  19 C :    0.004014
  20 O :   -0.522222
  21 H :    0.142788
  22 H :    0.156725
  23 O :   -0.618655
  24 H :    0.142249
  25 H :    0.177923
  26 H :    0.153572
  27 H :    0.137924
  28 H :    0.366734
Sum of atomic charges:   -0.0000000

LOEWDIN ATOMIC CHARGES
----------------------
   0 C :    0.176082
   1 C :   -0.230880
   2 C :   -0.216156
   3 C :   -0.023420
   4 O :   -0.306856
   5 H :    0.086665
   6 H :    0.116181
   7 H :    0.117069
   8 H :    0.115984
   9 H :    0.119826
  10 H :    0.111028
  11 H :    0.103802
  12 C :   -0.048191
  13 H :    0.108379
  14 H :    0.104718
  15 O :   -0.338060
  16 C :    0.019739
  17 C :    0.037903
  18 C :   -0.244720
  19 C :   -0.021136
  20 O :   -0.322895
  21 H :    0.111327
  22 H :    0.112454
  23 O :   -0.417434
  24 H :    0.113179
  25 H :    0.126176
  26 H :    0.109315
  27 H :    0.099311
  28 H :    0.280610

  Mayer bond orders larger than 0.100000
B(  0-C ,  1-C ) :   0.9310 B(  0-C ,  4-O ) :   0.9352 B(  0-C ,  5-H ) :   0.9119
B(  0-C , 15-O ) :   0.8341 B(  1-C ,  2-C ) :   0.9513 B(  1-C ,  6-H ) :   0.9338
B(  1-C ,  7-H ) :   0.9318 B(  2-C ,  3-C ) :   0.9564 B(  2-C ,  8-H ) :   0.9447
B(  2-C ,  9-H ) :   0.9438 B(  3-C ,  4-O ) :   0.8294 B(  3-C , 10-H ) :   0.9345
B(  3-C , 11-H ) :   0.9398 B( 12-C , 13-H ) :   0.9243 B( 12-C , 14-H ) :   0.9034
B( 12-C , 15-O ) :   0.8368 B( 12-C , 16-C ) :   0.9084 B( 16-C , 17-C ) :   0.8877
B( 16-C , 20-O ) :   0.8817 B( 16-C , 21-H ) :   0.9271 B( 17-C , 18-C ) :   0.9434
B( 17-C , 22-H ) :   0.9337 B( 17-C , 23-O ) :   0.8882 B( 18-C , 19-C ) :   0.9454
B( 18-C , 24-H ) :   0.9407 B( 18-C , 25-H ) :   0.9204 B( 19-C , 20-O ) :   0.8372
B( 19-C , 26-H ) :   0.9318 B( 19-C , 27-H ) :   0.9384 B( 23-O , 28-H ) :   0.7902

FINAL SINGLE POINT ENERGY      -652.858507779089

DIPOLE MOMENT
-------------
                                X             Y             Z
Electronic contribution:     -2.60710      -2.36743      -1.21861
Nuclear contribution   :      3.48216       2.81519       1.32854
                        -----------------------------------------
Total Dipole Moment    :      0.87506       0.44776       0.10993
                        -----------------------------------------
Magnitude (a.u.)       :      0.98909
Magnitude (Debye)      :      2.51407

Rotational constants in cm-1:     0.048130     0.015466     0.014938
Rotational constants in MHz :  1442.908261   463.651799   447.842905

                             ****ORCA TERMINATED NORMALLY****
TOTAL RUN TIME: 0 days 0 hours 22 minutes 31 seconds 172 msec
