                         Program Version 4.2.0 -  RELEASE  -
|  1> # Test redundant internal optimization
|  2> #
|  3> ! RKS B3LYP  Opt TightSCF SmallPrint
|  4>
|  5> %basis
|  6>         Basis "6-31G"
|  7> end
|  8>
|  9> %geom
| 10> Constraints
| 11> { D 4  0  15  12  225.0   C } # D for Dihedral angle
| 12> { D 0  15  12  16  180.0   C } # D for Dihedral angle
| 13> { D 0  4  3  2   C } # D for Dihedral angle
| 14> { D 4  3  2  1   C } # D for Dihedral angle
| 15> { D 3  2  1  0   C } # D for Dihedral angle
| 16> { D 2  1  0  4   C } # D for Dihedral angle
| 17> { D 1  0  4  3   C } # D for Dihedral angle
| 18> { D 16  20  19  18   C } # D for Dihedral angle
| 19> { D 20  19  18  17   C } # D for Dihedral angle
| 20> { D 19  18  17  16   C } # D for Dihedral angle
| 21> { D 18  17  16  20   C } # D for Dihedral angle
| 22> { D 17  16  20  19   C } # D for Dihedral angle
| 23> { D 15  12  16  20   C } # D for Dihedral angle
| 24> end
| 25> end
| 26>
| 27>
| 28> #%pal
| 29> #nprocs 8
| 30> #end
| 31>
| 32> * xyz 0 1
| 33> C  -21.048   26.222   46.251
| 34> C  -20.361   27.558   45.944
| 35> C  -20.329   28.222   47.341
| 36> C  -20.110   27.022   48.296
| 37> O  -20.473   25.807   47.535
| 38> H  -20.833   25.428   45.533
| 39> H  -19.344   27.382   45.576
| 40> H  -20.898   28.157   45.201
| 41> H  -19.543   28.978   47.434
| 42> H  -21.289   28.710   47.548
| 43> H  -20.733   27.082   49.195
| 44> H  -19.064   26.913   48.597
| 45> C  -23.415   25.773   45.218
| 46> H  -23.115   26.235   44.269
| 47> H  -23.229   24.693   45.148
| 48> O  -22.586   26.394   46.375
| 49> C  -24.945   25.977   45.398
| 50> C  -25.736   25.254   44.303
| 51> C  -25.715   23.794   44.813
| 52> C  -25.790   23.958   46.352
| 53> O  -25.402   25.354   46.645
| 54> H  -25.156   27.046   45.478
| 55> H  -26.763   25.636   44.265
| 56> O  -25.105   25.408   42.892
| 57> H  -26.541   23.193   44.417
| 58> H  -24.777   23.306   44.522
| 59> H  -25.112   23.278   46.879
| 60> H  -26.804   23.817   46.738
| 61> H  -24.077   25.031   42.904
| 62> *
| 63>
| 64>                          ****END OF INPUT****
 Total Charge           Charge          ....    0
 Multiplicity           Mult            ....    1
 Number of Electrons    NEL             ....  102
FINAL SINGLE POINT ENERGY      -652.825293912453
FINAL SINGLE POINT ENERGY      -652.849339651072
FINAL SINGLE POINT ENERGY      -652.853686914845
FINAL SINGLE POINT ENERGY      -652.854504884746
FINAL SINGLE POINT ENERGY      -652.854670563627
FINAL SINGLE POINT ENERGY      -652.854702424130
FINAL SINGLE POINT ENERGY      -652.854708294300
FINAL SINGLE POINT ENERGY      -652.854709369499
                    ***********************HURRAY********************

CARTESIAN COORDINATES (ANGSTROEM)
---------------------------------
  C    -21.040687   26.190529   46.190738
  C    -20.417215   27.562151   45.939309
  C    -20.493641   28.209762   47.342067
  C    -20.258053   27.013163   48.288769
  O    -20.520216   25.798192   47.473250
  H    -20.765191   25.406694   45.477683
  H    -19.374521   27.439542   45.621806
  H    -20.952662   28.130104   45.173935
  H    -19.755492   29.005329   47.479969
  H    -21.492136   28.629153   47.496794
  H    -20.931126   27.006298   49.149224
  H    -19.222490   26.940110   48.634620
  C    -23.225063   25.716419   45.173350
  H    -22.960539   26.188535   44.214505
  H    -22.989161   24.641974   45.110939
  O    -22.486862   26.312242   46.267455
  C    -24.712701   25.943185   45.427204
  C    -25.622515   25.319938   44.355860
  C    -25.731921   23.844790   44.846531
  C    -25.723897   23.997224   46.383350
  O    -25.179064   25.348742   46.673993
  H    -24.874597   27.019710   45.532963
  H    -26.600096   25.805569   44.385708
  O    -25.175094   25.479500   42.986842
  H    -26.631612   23.350325   44.470691
  H    -24.860588   23.276335   44.493918
  H    -25.103875   23.248092   46.884781
  H    -26.731636   23.962048   46.807483
  H    -24.460351   24.842343   42.783266

 Multiplicity           Mult            ....    1
 Number of Electrons    NEL             ....  102
 Basis Dimension        Dim             ....  149

ORBITAL ENERGIES
----------------

  NO   OCC          E(Eh)            E(eV)
   0   2.0000     -19.151544      -521.1400
   1   2.0000     -19.136799      -520.7388
   2   2.0000     -19.135148      -520.6939
   3   2.0000     -19.134382      -520.6730
   4   2.0000     -10.275914      -279.6218
   5   2.0000     -10.245863      -278.8041
   6   2.0000     -10.232137      -278.4306
   7   2.0000     -10.230626      -278.3895
   8   2.0000     -10.228549      -278.3330
   9   2.0000     -10.219487      -278.0864
  10   2.0000     -10.196265      -277.4545
  11   2.0000     -10.182297      -277.0744
  12   2.0000     -10.181109      -277.0421
  13   2.0000      -1.049101       -28.5475
  14   2.0000      -1.034104       -28.1394
  15   2.0000      -1.015064       -27.6213
  16   2.0000      -0.990913       -26.9641
  17   2.0000      -0.784844       -21.3567
  18   2.0000      -0.781213       -21.2579
  19   2.0000      -0.766732       -20.8638
  20   2.0000      -0.727330       -19.7917
  21   2.0000      -0.679334       -18.4856
  22   2.0000      -0.612010       -16.6536
  23   2.0000      -0.594498       -16.1771
  24   2.0000      -0.586716       -15.9654
  25   2.0000      -0.579981       -15.7821
  26   2.0000      -0.528736       -14.3876
  27   2.0000      -0.510645       -13.8953
  28   2.0000      -0.498317       -13.5599
  29   2.0000      -0.485458       -13.2100
  30   2.0000      -0.466608       -12.6970
  31   2.0000      -0.458016       -12.4633
  32   2.0000      -0.447850       -12.1866
  33   2.0000      -0.432191       -11.7605
  34   2.0000      -0.425898       -11.5893
  35   2.0000      -0.420306       -11.4371
  36   2.0000      -0.401759       -10.9324
  37   2.0000      -0.397901       -10.8274
  38   2.0000      -0.377695       -10.2776
  39   2.0000      -0.371180       -10.1003
  40   2.0000      -0.353594        -9.6218
  41   2.0000      -0.350593        -9.5401
  42   2.0000      -0.348545        -9.4844
  43   2.0000      -0.330119        -8.9830
  44   2.0000      -0.316072        -8.6008
  45   2.0000      -0.309373        -8.4185
  46   2.0000      -0.303805        -8.2670
  47   2.0000      -0.272227        -7.4077
  48   2.0000      -0.258644        -7.0381
  49   2.0000      -0.244107        -6.6425
  50   2.0000      -0.240048        -6.5320
  51   0.0000       0.048515         1.3202
  52   0.0000       0.077418         2.1066
  53   0.0000       0.086821         2.3625
  54   0.0000       0.094205         2.5635
  55   0.0000       0.105668         2.8754

MULLIKEN ATOMIC CHARGES
-----------------------
   0 C :    0.289400
   1 C :   -0.255747
   2 C :   -0.300383
   3 C :   -0.000661
   4 O :   -0.501715
   5 H :    0.133490
   6 H :    0.140255
   7 H :    0.144078
   8 H :    0.139579
   9 H :    0.165850
  10 H :    0.156693
  11 H :    0.138326
  12 C :   -0.009425
  13 H :    0.127978
  14 H :    0.119972
  15 O :   -0.504105
  16 C :    0.091897
  17 C :    0.081551
  18 C :   -0.323320
  19 C :   -0.010188
  20 O :   -0.499284
  21 H :    0.165153
  22 H :    0.168018
  23 O :   -0.600016
  24 H :    0.156815
  25 H :    0.132424
  26 H :    0.150264
  27 H :    0.148286
  28 H :    0.354815
Sum of atomic charges:   -0.0000000

LOEWDIN ATOMIC CHARGES
----------------------
   0 C :    0.176584
   1 C :   -0.224192
   2 C :   -0.216661
   3 C :   -0.025564
   4 O :   -0.310974
   5 H :    0.095545
   6 H :    0.111022
   7 H :    0.116409
   8 H :    0.113220
   9 H :    0.121120
  10 H :    0.110589
  11 H :    0.100608
  12 C :   -0.049892
  13 H :    0.092973
  14 H :    0.087313
  15 O :   -0.321739
  16 C :    0.022851
  17 C :    0.034583
  18 C :   -0.241063
  19 C :   -0.029624
  20 O :   -0.309316
  21 H :    0.120337
  22 H :    0.119749
  23 O :   -0.408165
  24 H :    0.122146
  25 H :    0.103024
  26 H :    0.106124
  27 H :    0.105770
  28 H :    0.277225

  Mayer bond orders larger than 0.100000
B(  0-C ,  1-C ) :   0.9380 B(  0-C ,  4-O ) :   0.9338 B(  0-C ,  5-H ) :   0.9191
B(  0-C , 15-O ) :   0.8393 B(  1-C ,  2-C ) :   0.9564 B(  1-C ,  6-H ) :   0.9356
B(  1-C ,  7-H ) :   0.9385 B(  2-C ,  3-C ) :   0.9550 B(  2-C ,  8-H ) :   0.9452
B(  2-C ,  9-H ) :   0.9427 B(  3-C ,  4-O ) :   0.8370 B(  3-C , 10-H ) :   0.9339
B(  3-C , 11-H ) :   0.9399 B( 12-C , 13-H ) :   0.9006 B( 12-C , 14-H ) :   0.9134
B( 12-C , 15-O ) :   0.8515 B( 12-C , 16-C ) :   0.9066 B( 16-C , 17-C ) :   0.8745
B( 16-C , 20-O ) :   0.8785 B( 16-C , 21-H ) :   0.9292 B( 17-C , 18-C ) :   0.9244
B( 17-C , 22-H ) :   0.9333 B( 17-C , 23-O ) :   0.8945 B( 18-C , 19-C ) :   0.9382
B( 18-C , 24-H ) :   0.9422 B( 18-C , 25-H ) :   0.9402 B( 19-C , 20-O ) :   0.8525
B( 19-C , 26-H ) :   0.9305 B( 19-C , 27-H ) :   0.9377 B( 23-O , 28-H ) :   0.7993

FINAL SINGLE POINT ENERGY      -652.854709503782

DIPOLE MOMENT
-------------
                                X             Y             Z
Electronic contribution:     -1.87411      -0.88006       0.37849
Nuclear contribution   :      2.19262       0.58893      -1.14796
                        -----------------------------------------
Total Dipole Moment    :      0.31851      -0.29113      -0.76947
                        -----------------------------------------
Magnitude (a.u.)       :      0.88221
Magnitude (Debye)      :      2.24239

Rotational constants in cm-1:     0.057191     0.012119     0.011025
Rotational constants in MHz :  1714.539504   363.309401   330.511412

                             ****ORCA TERMINATED NORMALLY****
TOTAL RUN TIME: 0 days 0 hours 24 minutes 15 seconds 412 msec
