                         Program Version 4.2.0 -  RELEASE  -
|  1> # Test redundant internal optimization
|  2> #
|  3> ! RKS B3LYP  Opt TightSCF SmallPrint
|  4>
|  5> %basis
|  6>         Basis "6-31G"
|  7> end
|  8>
|  9> %geom
| 10> Constraints
| 11> { D 4  0  15  12  195.0   C } # D for Dihedral angle
| 12> { D 0  15  12  16  285.0   C } # D for Dihedral angle
| 13> { D 0  4  3  2   C } # D for Dihedral angle
| 14> { D 4  3  2  1   C } # D for Dihedral angle
| 15> { D 3  2  1  0   C } # D for Dihedral angle
| 16> { D 2  1  0  4   C } # D for Dihedral angle
| 17> { D 1  0  4  3   C } # D for Dihedral angle
| 18> { D 16  20  19  18   C } # D for Dihedral angle
| 19> { D 20  19  18  17   C } # D for Dihedral angle
| 20> { D 19  18  17  16   C } # D for Dihedral angle
| 21> { D 18  17  16  20   C } # D for Dihedral angle
| 22> { D 17  16  20  19   C } # D for Dihedral angle
| 23> { D 15  12  16  20   C } # D for Dihedral angle
| 24> end
| 25> end
| 26>
| 27>
| 28> #%pal
| 29> #nprocs 8
| 30> #end
| 31>
| 32> * xyz 0 1
| 33> C  -21.048   26.222   46.251
| 34> C  -20.361   27.558   45.944
| 35> C  -20.329   28.222   47.341
| 36> C  -20.110   27.022   48.296
| 37> O  -20.473   25.807   47.535
| 38> H  -20.833   25.428   45.533
| 39> H  -19.344   27.382   45.576
| 40> H  -20.898   28.157   45.201
| 41> H  -19.543   28.978   47.434
| 42> H  -21.289   28.710   47.548
| 43> H  -20.733   27.082   49.195
| 44> H  -19.064   26.913   48.597
| 45> C  -23.353   26.472   45.026
| 46> H  -22.987   25.684   44.356
| 47> H  -24.427   26.315   45.186
| 48> O  -22.586   26.394   46.375
| 49> C  -23.176   27.841   44.313
| 50> C  -24.036   27.925   43.048
| 51> C  -25.432   28.238   43.637
| 52> C  -25.106   29.140   44.854
| 53> O  -23.675   28.929   45.162
| 54> H  -22.112   28.025   44.150
| 55> O  -23.547   29.092   42.147
| 56> H  -24.022   27.003   42.456
| 57> H  -26.096   28.730   42.919
| 58> H  -25.919   27.311   43.964
| 59> H  -25.704   28.887   45.736
| 60> H  -25.234   30.203   44.631
| 61> H  -23.554   30.027   42.719
| 62> *
| 63>
| 64>                          ****END OF INPUT****
 Total Charge           Charge          ....    0
 Multiplicity           Mult            ....    1
 Number of Electrons    NEL             ....  102
FINAL SINGLE POINT ENERGY      -652.824872417658
FINAL SINGLE POINT ENERGY      -652.848969678226
FINAL SINGLE POINT ENERGY      -652.853499312219
FINAL SINGLE POINT ENERGY      -652.855513241130
FINAL SINGLE POINT ENERGY      -652.855704599492
FINAL SINGLE POINT ENERGY      -652.855741129935
                    ***********************HURRAY********************

CARTESIAN COORDINATES (ANGSTROEM)
---------------------------------
  C    -20.990063   26.258275   46.147617
  C    -20.247107   27.580465   45.956671
  C    -20.353780   28.219404   47.366640
  C    -20.267689   26.992624   48.297582
  O    -20.576335   25.816860   47.446823
  H    -20.743098   25.471750   45.424497
  H    -19.201199   27.359438   45.708852
  H    -20.654514   28.224176   45.178652
  H    -19.561067   28.948383   47.557931
  H    -21.323033   28.717089   47.462167
  H    -20.987565   27.023202   49.119298
  H    -19.262669   26.832661   48.699795
  C    -23.231171   26.534736   45.021668
  H    -22.949057   25.739057   44.309465
  H    -24.251180   26.337368   45.362061
  O    -22.438859   26.414116   46.228715
  C    -23.176656   27.876207   44.282132
  C    -24.111760   27.912238   43.064306
  C    -25.480935   28.235924   43.723720
  C    -25.089109   29.180135   44.888435
  O    -23.637474   28.987316   45.118897
  H    -22.157967   28.113818   43.972303
  O    -23.703014   28.948634   42.129366
  H    -24.119458   26.990012   42.482209
  H    -26.155972   28.703093   43.002228
  H    -25.953034   27.318595   44.092398
  H    -25.628301   28.957913   45.814165
  H    -25.239459   30.236111   44.642386
  H    -23.499475   29.767398   42.629021

 Multiplicity           Mult            ....    1
 Number of Electrons    NEL             ....  102
 Basis Dimension        Dim             ....  149

ORBITAL ENERGIES
----------------

  NO   OCC          E(Eh)            E(eV)
   0   2.0000     -19.147770      -521.0373
   1   2.0000     -19.145381      -520.9723
   2   2.0000     -19.137119      -520.7475
   3   2.0000     -19.135666      -520.7079
   4   2.0000     -10.277901      -279.6759
   5   2.0000     -10.249065      -278.8912
   6   2.0000     -10.239250      -278.6242
   7   2.0000     -10.236094      -278.5383
   8   2.0000     -10.235649      -278.5262
   9   2.0000     -10.219474      -278.0860
  10   2.0000     -10.195529      -277.4345
  11   2.0000     -10.182479      -277.0793
  12   2.0000     -10.179321      -276.9934
  13   2.0000      -1.050894       -28.5963
  14   2.0000      -1.041731       -28.3470
  15   2.0000      -1.012091       -27.5404
  16   2.0000      -0.989520       -26.9262
  17   2.0000      -0.790459       -21.5095
  18   2.0000      -0.780273       -21.2323
  19   2.0000      -0.770926       -20.9780
  20   2.0000      -0.733120       -19.9492
  21   2.0000      -0.676844       -18.4179
  22   2.0000      -0.610918       -16.6239
  23   2.0000      -0.603761       -16.4292
  24   2.0000      -0.594488       -16.1768
  25   2.0000      -0.577888       -15.7251
  26   2.0000      -0.526937       -14.3387
  27   2.0000      -0.514544       -14.0015
  28   2.0000      -0.495278       -13.4772
  29   2.0000      -0.491123       -13.3641
  30   2.0000      -0.473359       -12.8807
  31   2.0000      -0.455604       -12.3976
  32   2.0000      -0.452417       -12.3109
  33   2.0000      -0.450688       -12.2639
  34   2.0000      -0.425818       -11.5871
  35   2.0000      -0.414148       -11.2696
  36   2.0000      -0.402860       -10.9624
  37   2.0000      -0.398040       -10.8312
  38   2.0000      -0.377954       -10.2846
  39   2.0000      -0.371963       -10.1216
  40   2.0000      -0.366094        -9.9619
  41   2.0000      -0.350885        -9.5481
  42   2.0000      -0.346644        -9.4327
  43   2.0000      -0.337644        -9.1878
  44   2.0000      -0.314776        -8.5655
  45   2.0000      -0.307682        -8.3724
  46   2.0000      -0.297002        -8.0818
  47   2.0000      -0.277322        -7.5463
  48   2.0000      -0.266255        -7.2452
  49   2.0000      -0.253908        -6.9092
  50   2.0000      -0.239167        -6.5081
  51   0.0000       0.060082         1.6349
  52   0.0000       0.084147         2.2898
  53   0.0000       0.084949         2.3116
  54   0.0000       0.086614         2.3569
  55   0.0000       0.101988         2.7752

MULLIKEN ATOMIC CHARGES
-----------------------
   0 C :    0.295832
   1 C :   -0.274190
   2 C :   -0.303687
   3 C :    0.000279
   4 O :   -0.500979
   5 H :    0.134409
   6 H :    0.142753
   7 H :    0.151422
   8 H :    0.138573
   9 H :    0.178773
  10 H :    0.154223
  11 H :    0.138642
  12 C :   -0.003931
  13 H :    0.118708
  14 H :    0.154320
  15 O :   -0.499449
  16 C :    0.051918
  17 C :    0.076401
  18 C :   -0.301255
  19 C :   -0.027200
  20 O :   -0.517706
  21 H :    0.159223
  22 O :   -0.600317
  23 H :    0.153696
  24 H :    0.166062
  25 H :    0.148042
  26 H :    0.153953
  27 H :    0.146663
  28 H :    0.364821
Sum of atomic charges:   -0.0000000

LOEWDIN ATOMIC CHARGES
----------------------
   0 C :    0.182238
   1 C :   -0.231514
   2 C :   -0.217405
   3 C :   -0.025070
   4 O :   -0.303033
   5 H :    0.094020
   6 H :    0.113139
   7 H :    0.116149
   8 H :    0.113071
   9 H :    0.126849
  10 H :    0.109326
  11 H :    0.100616
  12 C :   -0.041100
  13 H :    0.091344
  14 H :    0.115099
  15 O :   -0.323504
  16 C :   -0.000485
  17 C :    0.036036
  18 C :   -0.241642
  19 C :   -0.036712
  20 O :   -0.327915
  21 H :    0.110836
  22 O :   -0.413697
  23 H :    0.116239
  24 H :    0.128050
  25 H :    0.114669
  26 H :    0.108251
  27 H :    0.102805
  28 H :    0.283337

  Mayer bond orders larger than 0.100000
B(  0-C ,  1-C ) :   0.9300 B(  0-C ,  4-O ) :   0.9398 B(  0-C ,  5-H ) :   0.9182
B(  0-C , 15-O ) :   0.8363 B(  1-C ,  2-C ) :   0.9522 B(  1-C ,  6-H ) :   0.9331
B(  1-C ,  7-H ) :   0.9225 B(  2-C ,  3-C ) :   0.9554 B(  2-C ,  8-H ) :   0.9449
B(  2-C ,  9-H ) :   0.9374 B(  3-C ,  4-O ) :   0.8321 B(  3-C , 10-H ) :   0.9349
B(  3-C , 11-H ) :   0.9399 B( 12-C , 13-H ) :   0.9099 B( 12-C , 14-H ) :   0.9381
B( 12-C , 15-O ) :   0.8785 B( 12-C , 16-C ) :   0.8717 B( 16-C , 17-C ) :   0.8936
B( 16-C , 20-O ) :   0.8619 B( 16-C , 21-H ) :   0.9125 B( 17-C , 18-C ) :   0.9127
B( 17-C , 22-O ) :   0.8934 B( 17-C , 23-H ) :   0.9323 B( 18-C , 19-C ) :   0.9385
B( 18-C , 24-H ) :   0.9370 B( 18-C , 25-H ) :   0.9328 B( 19-C , 20-O ) :   0.8451
B( 19-C , 26-H ) :   0.9337 B( 19-C , 27-H ) :   0.9378 B( 22-O , 28-H ) :   0.7941

FINAL SINGLE POINT ENERGY      -652.855744558554

DIPOLE MOMENT
-------------
                                X             Y             Z
Electronic contribution:      0.23394      -2.01455      -0.26884
Nuclear contribution   :     -0.56516       2.61257      -0.09512
                        -----------------------------------------
Total Dipole Moment    :     -0.33122       0.59802      -0.36396
                        -----------------------------------------
Magnitude (a.u.)       :      0.77447
Magnitude (Debye)      :      1.96854

Rotational constants in cm-1:     0.059029     0.012856     0.012753
Rotational constants in MHz :  1769.640206   385.416529   382.317014

                             ****ORCA TERMINATED NORMALLY****
TOTAL RUN TIME: 0 days 0 hours 21 minutes 42 seconds 652 msec
