                         Program Version 4.2.0 -  RELEASE  -
|  1> # Test redundant internal optimization
|  2> #
|  3> ! RKS B3LYP  Opt TightSCF SmallPrint
|  4>
|  5> %basis
|  6>         Basis "6-31G"
|  7> end
|  8>
|  9> %geom
| 10> Constraints
| 11> { D 4  0  15  12  90.0   C } # D for Dihedral angle
| 12> { D 0  15  12  16  75.0   C } # D for Dihedral angle
| 13> { D 0  4  3  2   C } # D for Dihedral angle
| 14> { D 4  3  2  1   C } # D for Dihedral angle
| 15> { D 3  2  1  0   C } # D for Dihedral angle
| 16> { D 2  1  0  4   C } # D for Dihedral angle
| 17> { D 1  0  4  3   C } # D for Dihedral angle
| 18> { D 16  20  19  18   C } # D for Dihedral angle
| 19> { D 20  19  18  17   C } # D for Dihedral angle
| 20> { D 19  18  17  16   C } # D for Dihedral angle
| 21> { D 18  17  16  20   C } # D for Dihedral angle
| 22> { D 17  16  20  19   C } # D for Dihedral angle
| 23> { D 15  12  16  20   C } # D for Dihedral angle
| 24> end
| 25> end
| 26>
| 27>
| 28> #%pal
| 29> #nprocs 8
| 30> #end
| 31>
| 32> * xyz 0 1
| 33> C  -21.048   26.222   46.251
| 34> C  -20.361   27.558   45.944
| 35> C  -20.329   28.222   47.341
| 36> C  -20.110   27.022   48.296
| 37> O  -20.473   25.807   47.535
| 38> H  -20.833   25.428   45.533
| 39> H  -19.344   27.382   45.576
| 40> H  -20.898   28.157   45.201
| 41> H  -19.543   28.978   47.434
| 42> H  -21.289   28.710   47.548
| 43> H  -20.733   27.082   49.195
| 44> H  -19.064   26.913   48.597
| 45> C  -23.061   27.816   46.783
| 46> H  -24.107   27.768   47.110
| 47> H  -22.458   28.197   47.617
| 48> O  -22.586   26.394   46.375
| 49> C  -22.959   28.840   45.619
| 50> C  -23.906   28.473   44.471
| 51> C  -25.263   28.985   45.008
| 52> C  -24.871   30.259   45.798
| 53> O  -23.419   30.162   46.059
| 54> H  -21.913   28.946   45.327
| 55> H  -23.620   29.015   43.562
| 56> O  -23.918   26.953   44.152
| 57> H  -25.983   29.194   44.211
| 58> H  -25.709   28.238   45.675
| 59> H  -25.402   30.341   46.752
| 60> H  -25.035   31.174   45.223
| 61> H  -24.201   26.392   45.049
| 62> *
| 63>
| 64>                          ****END OF INPUT****
 Total Charge           Charge          ....    0
 Multiplicity           Mult            ....    1
 Number of Electrons    NEL             ....  102
FINAL SINGLE POINT ENERGY      -652.781311206687
FINAL SINGLE POINT ENERGY      -652.827310191649
FINAL SINGLE POINT ENERGY      -652.848459139948
FINAL SINGLE POINT ENERGY      -652.853945649129
FINAL SINGLE POINT ENERGY      -652.855286798652
FINAL SINGLE POINT ENERGY      -652.855814540676
FINAL SINGLE POINT ENERGY      -652.855950173751
FINAL SINGLE POINT ENERGY      -652.855981857387
                    ***********************HURRAY********************

CARTESIAN COORDINATES (ANGSTROEM)
---------------------------------
  C    -21.199547   26.309425   46.423547
  C    -20.204595   27.377307   45.954206
  C    -19.890217   28.133027   47.276962
  C    -19.933085   26.998054   48.329069
  O    -20.668357   25.877968   47.691366
  H    -21.212313   25.422666   45.789435
  H    -19.310290   26.855429   45.596843
  H    -20.572653   28.006579   45.144339
  H    -18.913712   28.625688   47.247660
  H    -20.639450   28.903155   47.482353
  H    -20.448781   27.281723   49.250882
  H    -18.937031   26.621721   48.577867
  C    -23.208163   27.927008   46.839825
  H    -24.245648   27.683797   47.081867
  H    -22.751391   28.352820   47.739853
  O    -22.621211   26.619193   46.513652
  C    -23.146846   28.959351   45.705483
  C    -23.956956   28.574905   44.455529
  C    -25.404599   28.931846   44.897687
  C    -25.207971   30.181970   45.780040
  O    -23.762679   30.202327   46.169533
  H    -22.115115   29.216232   45.464594
  H    -23.659734   29.214048   43.618370
  O    -23.779428   27.215400   44.007556
  H    -26.055117   29.117866   44.039232
  H    -25.828426   28.092634   45.459878
  H    -25.814669   30.172515   46.690174
  H    -25.395326   31.113548   45.238753
  H    -23.552690   26.639797   44.775444

 Multiplicity           Mult            ....    1
 Number of Electrons    NEL             ....  102
 Basis Dimension        Dim             ....  149

ORBITAL ENERGIES
----------------

  NO   OCC          E(Eh)            E(eV)
   0   2.0000     -19.160595      -521.3863
   1   2.0000     -19.147018      -521.0169
   2   2.0000     -19.146274      -520.9966
   3   2.0000     -19.124309      -520.3989
   4   2.0000     -10.289694      -279.9968
   5   2.0000     -10.241085      -278.6741
   6   2.0000     -10.238325      -278.5990
   7   2.0000     -10.237651      -278.5806
   8   2.0000     -10.233980      -278.4808
   9   2.0000     -10.231847      -278.4227
  10   2.0000     -10.199910      -277.5537
  11   2.0000     -10.199151      -277.5330
  12   2.0000     -10.185326      -277.1568
  13   2.0000      -1.059433       -28.8286
  14   2.0000      -1.030367       -28.0377
  15   2.0000      -1.007436       -27.4137
  16   2.0000      -0.998733       -27.1769
  17   2.0000      -0.796493       -21.6737
  18   2.0000      -0.780243       -21.2315
  19   2.0000      -0.773576       -21.0501
  20   2.0000      -0.741829       -20.1862
  21   2.0000      -0.687005       -18.6944
  22   2.0000      -0.611740       -16.6463
  23   2.0000      -0.607051       -16.5187
  24   2.0000      -0.602371       -16.3913
  25   2.0000      -0.577469       -15.7137
  26   2.0000      -0.538834       -14.6624
  27   2.0000      -0.511600       -13.9213
  28   2.0000      -0.506274       -13.7764
  29   2.0000      -0.491099       -13.3635
  30   2.0000      -0.474276       -12.9057
  31   2.0000      -0.461347       -12.5539
  32   2.0000      -0.448235       -12.1971
  33   2.0000      -0.439114       -11.9489
  34   2.0000      -0.427879       -11.6432
  35   2.0000      -0.421162       -11.4604
  36   2.0000      -0.414589       -11.2815
  37   2.0000      -0.398621       -10.8470
  38   2.0000      -0.392049       -10.6682
  39   2.0000      -0.375299       -10.2124
  40   2.0000      -0.367818       -10.0088
  41   2.0000      -0.356183        -9.6922
  42   2.0000      -0.353913        -9.6305
  43   2.0000      -0.340265        -9.2591
  44   2.0000      -0.322809        -8.7841
  45   2.0000      -0.315083        -8.5738
  46   2.0000      -0.296253        -8.0615
  47   2.0000      -0.285115        -7.7584
  48   2.0000      -0.264215        -7.1897
  49   2.0000      -0.256420        -6.9775
  50   2.0000      -0.243292        -6.6203
  51   0.0000       0.053038         1.4432
  52   0.0000       0.066983         1.8227
  53   0.0000       0.083908         2.2832
  54   0.0000       0.092392         2.5141
  55   0.0000       0.100569         2.7366

MULLIKEN ATOMIC CHARGES
-----------------------
   0 C :    0.309559
   1 C :   -0.295913
   2 C :   -0.318725
   3 C :   -0.010158
   4 O :   -0.495895
   5 H :    0.171834
   6 H :    0.162551
   7 H :    0.158091
   8 H :    0.150411
   9 H :    0.159868
  10 H :    0.149507
  11 H :    0.150250
  12 C :   -0.039531
  13 H :    0.165777
  14 H :    0.154790
  15 O :   -0.544443
  16 C :    0.049380
  17 C :    0.113272
  18 C :   -0.311834
  19 C :   -0.018781
  20 O :   -0.523718
  21 H :    0.158246
  22 H :    0.150811
  23 O :   -0.632062
  24 H :    0.157555
  25 H :    0.148156
  26 H :    0.146695
  27 H :    0.149094
  28 H :    0.385214
Sum of atomic charges:   -0.0000000

LOEWDIN ATOMIC CHARGES
----------------------
   0 C :    0.178278
   1 C :   -0.231011
   2 C :   -0.223389
   3 C :   -0.031370
   4 O :   -0.312450
   5 H :    0.115929
   6 H :    0.126464
   7 H :    0.119801
   8 H :    0.118888
   9 H :    0.113331
  10 H :    0.105561
  11 H :    0.106366
  12 C :   -0.049944
  13 H :    0.117824
  14 H :    0.108272
  15 O :   -0.330327
  16 C :    0.001767
  17 C :    0.040778
  18 C :   -0.240361
  19 C :   -0.031497
  20 O :   -0.324730
  21 H :    0.110342
  22 H :    0.108819
  23 O :   -0.428629
  24 H :    0.123851
  25 H :    0.112418
  26 H :    0.104168
  27 H :    0.106595
  28 H :    0.284255

  Mayer bond orders larger than 0.100000
B(  0-C ,  1-C ) :   0.9251 B(  0-C ,  4-O ) :   0.9216 B(  0-C ,  5-H ) :   0.9335
B(  0-C , 15-O ) :   0.8487 B(  1-C ,  2-C ) :   0.9520 B(  1-C ,  6-H ) :   0.9306
B(  1-C ,  7-H ) :   0.9223 B(  2-C ,  3-C ) :   0.9451 B(  2-C ,  8-H ) :   0.9447
B(  2-C ,  9-H ) :   0.9375 B(  3-C ,  4-O ) :   0.8422 B(  3-C , 10-H ) :   0.9344
B(  3-C , 11-H ) :   0.9384 B( 12-C , 13-H ) :   0.9368 B( 12-C , 14-H ) :   0.9209
B( 12-C , 15-O ) :   0.8051 B( 12-C , 16-C ) :   0.8775 B( 16-C , 17-C ) :   0.9063
B( 16-C , 20-O ) :   0.8440 B( 16-C , 21-H ) :   0.9203 B( 17-C , 18-C ) :   0.9020
B( 17-C , 22-H ) :   0.9340 B( 17-C , 23-O ) :   0.9330 B( 18-C , 19-C ) :   0.9395
B( 18-C , 24-H ) :   0.9430 B( 18-C , 25-H ) :   0.9420 B( 19-C , 20-O ) :   0.8299
B( 19-C , 26-H ) :   0.9335 B( 19-C , 27-H ) :   0.9390 B( 23-O , 28-H ) :   0.7319

FINAL SINGLE POINT ENERGY      -652.855983171926

DIPOLE MOMENT
-------------
                                X             Y             Z
Electronic contribution:     -0.79178      -3.29834      -0.38190
Nuclear contribution   :      1.18796       4.14760       0.65939
                        -----------------------------------------
Total Dipole Moment    :      0.39618       0.84925       0.27749
                        -----------------------------------------
Magnitude (a.u.)       :      0.97734
Magnitude (Debye)      :      2.48420

Rotational constants in cm-1:     0.053387     0.015296     0.013831
Rotational constants in MHz :  1600.499261   458.559612   414.644668

                             ****ORCA TERMINATED NORMALLY****
TOTAL RUN TIME: 0 days 0 hours 48 minutes 10 seconds 721 msec
