                         Program Version 4.2.0 -  RELEASE  -
|  1> # Test redundant internal optimization
|  2> #
|  3> ! RKS B3LYP  Opt TightSCF SmallPrint
|  4>
|  5> %basis
|  6>         Basis "6-31G"
|  7> end
|  8>
|  9> %geom
| 10> Constraints
| 11> { D 4  0  15  12  0.0   C } # D for Dihedral angle
| 12> { D 0  15  12  16  195.0   C } # D for Dihedral angle
| 13> { D 0  4  3  2   C } # D for Dihedral angle
| 14> { D 4  3  2  1   C } # D for Dihedral angle
| 15> { D 3  2  1  0   C } # D for Dihedral angle
| 16> { D 2  1  0  4   C } # D for Dihedral angle
| 17> { D 1  0  4  3   C } # D for Dihedral angle
| 18> { D 16  20  19  18   C } # D for Dihedral angle
| 19> { D 20  19  18  17   C } # D for Dihedral angle
| 20> { D 19  18  17  16   C } # D for Dihedral angle
| 21> { D 18  17  16  20   C } # D for Dihedral angle
| 22> { D 17  16  20  19   C } # D for Dihedral angle
| 23> { D 15  12  16  20   C } # D for Dihedral angle
| 24> end
| 25> end
| 26>
| 27>
| 28> #%pal
| 29> #nprocs 8
| 30> #end
| 31>
| 32> * xyz 0 1
| 33> C  -21.048   26.222   46.251
| 34> C  -20.361   27.558   45.944
| 35> C  -20.329   28.222   47.341
| 36> C  -20.110   27.022   48.296
| 37> O  -20.473   25.807   47.535
| 38> H  -20.833   25.428   45.533
| 39> H  -19.344   27.382   45.576
| 40> H  -20.898   28.157   45.201
| 41> H  -19.543   28.978   47.434
| 42> H  -21.289   28.710   47.548
| 43> H  -20.733   27.082   49.195
| 44> H  -19.064   26.913   48.597
| 45> C  -23.172   26.101   47.783
| 46> H  -22.724   25.180   48.177
| 47> H  -22.937   26.920   48.475
| 48> O  -22.586   26.394   46.375
| 49> C  -24.716   25.924   47.767
| 50> C  -25.271   25.752   49.184
| 51> C  -25.290   27.213   49.694
| 52> C  -25.645   28.023   48.423
| 53> O  -25.366   27.141   47.270
| 54> H  -24.976   25.117   47.078
| 55> O  -26.712   25.173   49.126
| 56> H  -24.659   25.092   49.809
| 57> H  -26.009   27.371   50.504
| 58> H  -24.298   27.494   50.067
| 59> H  -25.048   28.937   48.328
| 60> H  -26.706   28.287   48.378
| 61> H  -27.343   25.819   48.505
| 62> *
| 63>
| 64>                          ****END OF INPUT****
 Total Charge           Charge          ....    0
 Multiplicity           Mult            ....    1
 Number of Electrons    NEL             ....  102
FINAL SINGLE POINT ENERGY      -652.830437168687
FINAL SINGLE POINT ENERGY      -652.853296136624
FINAL SINGLE POINT ENERGY      -652.857484600550
FINAL SINGLE POINT ENERGY      -652.858187944061
FINAL SINGLE POINT ENERGY      -652.858285882368
FINAL SINGLE POINT ENERGY      -652.858299304543
                    ***********************HURRAY********************

CARTESIAN COORDINATES (ANGSTROEM)
---------------------------------
  C    -21.157031   26.209605   46.353704
  C    -20.525350   27.542506   45.950414
  C    -20.273662   28.201913   47.326166
  C    -19.911004   27.003286   48.230909
  O    -20.401323   25.792996   47.513763
  H    -21.055575   25.410015   45.616436
  H    -19.582294   27.353288   45.424045
  H    -21.185736   28.126575   45.306280
  H    -19.477529   28.952110   47.295799
  H    -21.188512   28.692522   47.674933
  H    -20.383116   27.043041   49.216702
  H    -18.831944   26.873967   48.355310
  C    -23.102614   26.128462   47.928328
  H    -22.691304   25.197195   48.337129
  H    -22.830144   26.948704   48.608617
  O    -22.584881   26.380863   46.596805
  C    -24.618779   26.012038   47.808930
  C    -25.332899   25.781522   49.147844
  C    -25.449452   27.228495   49.698428
  C    -25.673813   28.070370   48.417166
  O    -25.237663   27.229781   47.277427
  H    -24.848829   25.217299   47.093073
  O    -26.641444   25.181936   48.939630
  H    -24.808013   25.102814   49.821794
  H    -26.274712   27.304179   50.411137
  H    -24.523910   27.516254   50.210092
  H    -25.098166   29.000681   48.415800
  H    -26.728546   28.313751   48.255775
  H    -27.064757   25.602830   48.161565

 Multiplicity           Mult            ....    1
 Number of Electrons    NEL             ....  102
 Basis Dimension        Dim             ....  149

ORBITAL ENERGIES
----------------

  NO   OCC          E(Eh)            E(eV)
   0   2.0000     -19.150920      -521.1230
   1   2.0000     -19.138304      -520.7797
   2   2.0000     -19.137302      -520.7525
   3   2.0000     -19.135258      -520.6968
   4   2.0000     -10.278059      -279.6802
   5   2.0000     -10.241877      -278.6956
   6   2.0000     -10.233907      -278.4788
   7   2.0000     -10.231587      -278.4156
   8   2.0000     -10.229448      -278.3574
   9   2.0000     -10.228744      -278.3383
  10   2.0000     -10.191770      -277.3322
  11   2.0000     -10.189392      -277.2675
  12   2.0000     -10.184621      -277.1376
  13   2.0000      -1.055163       -28.7124
  14   2.0000      -1.034526       -28.1509
  15   2.0000      -1.004726       -27.3400
  16   2.0000      -0.990545       -26.9541
  17   2.0000      -0.792190       -21.5566
  18   2.0000      -0.782412       -21.2905
  19   2.0000      -0.768223       -20.9044
  20   2.0000      -0.733741       -19.9661
  21   2.0000      -0.672206       -18.2917
  22   2.0000      -0.604984       -16.4625
  23   2.0000      -0.603412       -16.4197
  24   2.0000      -0.593779       -16.1575
  25   2.0000      -0.576521       -15.6879
  26   2.0000      -0.526783       -14.3345
  27   2.0000      -0.506586       -13.7849
  28   2.0000      -0.498149       -13.5553
  29   2.0000      -0.492952       -13.4139
  30   2.0000      -0.476203       -12.9581
  31   2.0000      -0.460149       -12.5213
  32   2.0000      -0.453463       -12.3393
  33   2.0000      -0.437414       -11.9026
  34   2.0000      -0.417148       -11.3512
  35   2.0000      -0.415696       -11.3117
  36   2.0000      -0.401506       -10.9255
  37   2.0000      -0.392483       -10.6800
  38   2.0000      -0.374149       -10.1811
  39   2.0000      -0.370608       -10.0848
  40   2.0000      -0.361042        -9.8244
  41   2.0000      -0.356938        -9.7128
  42   2.0000      -0.350937        -9.5495
  43   2.0000      -0.340269        -9.2592
  44   2.0000      -0.324774        -8.8375
  45   2.0000      -0.308994        -8.4082
  46   2.0000      -0.302436        -8.2297
  47   2.0000      -0.270336        -7.3562
  48   2.0000      -0.263605        -7.1731
  49   2.0000      -0.249954        -6.8016
  50   2.0000      -0.239410        -6.5147
  51   0.0000       0.060985         1.6595
  52   0.0000       0.076255         2.0750
  53   0.0000       0.092176         2.5082
  54   0.0000       0.097718         2.6590
  55   0.0000       0.103178         2.8076

MULLIKEN ATOMIC CHARGES
-----------------------
   0 C :    0.296689
   1 C :   -0.253598
   2 C :   -0.310901
   3 C :   -0.016768
   4 O :   -0.512598
   5 H :    0.157636
   6 H :    0.142904
   7 H :    0.166435
   8 H :    0.147707
   9 H :    0.156773
  10 H :    0.141109
  11 H :    0.152192
  12 C :    0.016529
  13 H :    0.149038
  14 H :    0.116748
  15 O :   -0.531016
  16 C :    0.060936
  17 C :    0.073422
  18 C :   -0.295159
  19 C :   -0.026564
  20 O :   -0.509861
  21 H :    0.169032
  22 O :   -0.602188
  23 H :    0.152843
  24 H :    0.164427
  25 H :    0.138216
  26 H :    0.144580
  27 H :    0.144970
  28 H :    0.366467
Sum of atomic charges:   -0.0000000

LOEWDIN ATOMIC CHARGES
----------------------
   0 C :    0.182098
   1 C :   -0.219821
   2 C :   -0.219937
   3 C :   -0.033203
   4 O :   -0.320165
   5 H :    0.106061
   6 H :    0.112909
   7 H :    0.128702
   8 H :    0.117570
   9 H :    0.114737
  10 H :    0.100319
  11 H :    0.107544
  12 C :   -0.037758
  13 H :    0.108028
  14 H :    0.085564
  15 O :   -0.332572
  16 C :    0.017672
  17 C :    0.034946
  18 C :   -0.241898
  19 C :   -0.038165
  20 O :   -0.321048
  21 H :    0.121179
  22 O :   -0.414573
  23 H :    0.115619
  24 H :    0.126862
  25 H :    0.109895
  26 H :    0.103348
  27 H :    0.102006
  28 H :    0.284080

  Mayer bond orders larger than 0.100000
B(  0-C ,  1-C ) :   0.9308 B(  0-C ,  4-O ) :   0.9070 B(  0-C ,  5-H ) :   0.9292
B(  0-C , 15-O ) :   0.8473 B(  1-C ,  2-C ) :   0.9516 B(  1-C ,  6-H ) :   0.9354
B(  1-C ,  7-H ) :   0.9348 B(  2-C ,  3-C ) :   0.9532 B(  2-C ,  8-H ) :   0.9445
B(  2-C ,  9-H ) :   0.9446 B(  3-C ,  4-O ) :   0.8307 B(  3-C , 10-H ) :   0.9330
B(  3-C , 11-H ) :   0.9400 B( 12-C , 13-H ) :   0.9081 B( 12-C , 14-H ) :   0.9144
B( 12-C , 15-O ) :   0.8314 B( 12-C , 16-C ) :   0.9028 B( 16-C , 17-C ) :   0.9016
B( 16-C , 20-O ) :   0.8612 B( 16-C , 21-H ) :   0.9232 B( 17-C , 18-C ) :   0.9103
B( 17-C , 22-O ) :   0.8938 B( 17-C , 23-H ) :   0.9326 B( 18-C , 19-C ) :   0.9411
B( 18-C , 24-H ) :   0.9371 B( 18-C , 25-H ) :   0.9347 B( 19-C , 20-O ) :   0.8546
B( 19-C , 26-H ) :   0.9344 B( 19-C , 27-H ) :   0.9378 B( 22-O , 28-H ) :   0.7931

FINAL SINGLE POINT ENERGY      -652.858301622351

DIPOLE MOMENT
-------------
                                X             Y             Z
Electronic contribution:     -3.16756      -4.62312      -2.81296
Nuclear contribution   :      3.93273       5.67534       3.38731
                        -----------------------------------------
Total Dipole Moment    :      0.76516       1.05222       0.57435
                        -----------------------------------------
Magnitude (a.u.)       :      1.42216
Magnitude (Debye)      :      3.61484

Rotational constants in cm-1:     0.056902     0.012741     0.012471
Rotational constants in MHz :  1705.885039   381.953548   373.867553

                             ****ORCA TERMINATED NORMALLY****
TOTAL RUN TIME: 0 days 0 hours 19 minutes 24 seconds 410 msec
