                         Program Version 4.2.0 -  RELEASE  -
|  1> # Test redundant internal optimization
|  2> #
|  3> ! RKS B3LYP  Opt TightSCF SmallPrint
|  4>
|  5> %basis
|  6>         Basis "6-31G"
|  7> end
|  8>
|  9> %geom
| 10> Constraints
| 11> { D 4  0  15  12  0.0   C } # D for Dihedral angle
| 12> { D 0  15  12  16  165.0   C } # D for Dihedral angle
| 13> { D 0  4  3  2   C } # D for Dihedral angle
| 14> { D 4  3  2  1   C } # D for Dihedral angle
| 15> { D 3  2  1  0   C } # D for Dihedral angle
| 16> { D 2  1  0  4   C } # D for Dihedral angle
| 17> { D 1  0  4  3   C } # D for Dihedral angle
| 18> { D 16  20  19  18   C } # D for Dihedral angle
| 19> { D 20  19  18  17   C } # D for Dihedral angle
| 20> { D 19  18  17  16   C } # D for Dihedral angle
| 21> { D 18  17  16  20   C } # D for Dihedral angle
| 22> { D 17  16  20  19   C } # D for Dihedral angle
| 23> { D 15  12  16  20   C } # D for Dihedral angle
| 24> end
| 25> end
| 26>
| 27>
| 28> #%pal
| 29> #nprocs 8
| 30> #end
| 31>
| 32> * xyz 0 1
| 33> C  -21.048   26.222   46.251
| 34> C  -20.361   27.558   45.944
| 35> C  -20.329   28.222   47.341
| 36> C  -20.110   27.022   48.296
| 37> O  -20.473   25.807   47.535
| 38> H  -20.833   25.428   45.533
| 39> H  -19.344   27.382   45.576
| 40> H  -20.898   28.157   45.201
| 41> H  -19.543   28.978   47.434
| 42> H  -21.289   28.710   47.548
| 43> H  -20.733   27.082   49.195
| 44> H  -19.064   26.913   48.597
| 45> C  -23.172   26.101   47.783
| 46> H  -23.182   25.017   47.953
| 47> H  -22.551   26.564   48.561
| 48> O  -22.586   26.394   46.375
| 49> C  -24.621   26.635   47.954
| 50> C  -25.594   25.914   47.015
| 51> C  -25.831   24.584   47.770
| 52> C  -25.791   25.013   49.259
| 53> O  -25.124   26.332   49.298
| 54> H  -24.616   27.722   47.852
| 55> H  -26.528   26.483   46.932
| 56> O  -25.021   25.703   45.587
| 57> H  -26.777   24.105   47.499
| 58> H  -25.022   23.878   47.549
| 59> H  -25.231   24.309   49.883
| 60> H  -26.790   25.144   49.682
| 61> H  -24.086   25.135   45.646
| 62> *
| 63>
| 64>                          ****END OF INPUT****
 Total Charge           Charge          ....    0
 Multiplicity           Mult            ....    1
 Number of Electrons    NEL             ....  102
FINAL SINGLE POINT ENERGY      -652.829385234840
FINAL SINGLE POINT ENERGY      -652.853424390982
FINAL SINGLE POINT ENERGY      -652.860313922376
FINAL SINGLE POINT ENERGY      -652.862738821862
FINAL SINGLE POINT ENERGY      -652.864124477496
FINAL SINGLE POINT ENERGY      -652.864919049529
FINAL SINGLE POINT ENERGY      -652.865172663370
FINAL SINGLE POINT ENERGY      -652.865219389076
FINAL SINGLE POINT ENERGY      -652.865224944909
                    ***********************HURRAY********************

CARTESIAN COORDINATES (ANGSTROEM)
---------------------------------
  C    -21.102774   26.177218   46.380906
  C    -20.535920   27.532161   45.959229
  C    -20.351157   28.236872   47.323313
  C    -19.944504   27.083188   48.264860
  O    -20.355966   25.830962   47.560541
  H    -20.950034   25.367802   45.664303
  H    -19.573039   27.377234   45.459098
  H    -21.205722   28.069025   45.283968
  H    -19.595814   29.027639   47.288929
  H    -21.296764   28.687543   47.642094
  H    -20.437950   27.115699   49.239601
  H    -18.863363   27.010372   48.410912
  C    -23.110528   26.016015   47.931244
  H    -23.081562   24.942785   48.151092
  H    -22.544380   26.536310   48.706388
  O    -22.550576   26.269401   46.597715
  C    -24.546123   26.551586   47.918260
  C    -25.502531   25.850707   46.938700
  C    -25.857467   24.550933   47.719823
  C    -25.882720   25.021575   49.188465
  O    -25.141628   26.318101   49.232195
  H    -24.524126   27.634330   47.764828
  H    -26.403750   26.466095   46.834220
  O    -24.990037   25.609310   45.615448
  H    -26.811582   24.129998   47.392265
  H    -25.078955   23.802302   47.536623
  H    -25.401656   24.321351   49.878333
  H    -26.894700   25.230887   49.546802
  H    -24.012671   25.746597   45.618844

 Multiplicity           Mult            ....    1
 Number of Electrons    NEL             ....  102
 Basis Dimension        Dim             ....  149

ORBITAL ENERGIES
----------------

  NO   OCC          E(Eh)            E(eV)
   0   2.0000     -19.162111      -521.4276
   1   2.0000     -19.160289      -521.3780
   2   2.0000     -19.138566      -520.7869
   3   2.0000     -19.109644      -519.9998
   4   2.0000     -10.293199      -280.0922
   5   2.0000     -10.241494      -278.6852
   6   2.0000     -10.235469      -278.5213
   7   2.0000     -10.232051      -278.4283
   8   2.0000     -10.227393      -278.3015
   9   2.0000     -10.224312      -278.2177
  10   2.0000     -10.199681      -277.5474
  11   2.0000     -10.196056      -277.4488
  12   2.0000     -10.176375      -276.9132
  13   2.0000      -1.068069       -29.0636
  14   2.0000      -1.024267       -27.8717
  15   2.0000      -1.006646       -27.3922
  16   2.0000      -0.989170       -26.9167
  17   2.0000      -0.800716       -21.7886
  18   2.0000      -0.775608       -21.1054
  19   2.0000      -0.766037       -20.8449
  20   2.0000      -0.737690       -20.0736
  21   2.0000      -0.677180       -18.4270
  22   2.0000      -0.613407       -16.6916
  23   2.0000      -0.599721       -16.3192
  24   2.0000      -0.592847       -16.1322
  25   2.0000      -0.576109       -15.6767
  26   2.0000      -0.535185       -14.5631
  27   2.0000      -0.513085       -13.9618
  28   2.0000      -0.508644       -13.8409
  29   2.0000      -0.486976       -13.2513
  30   2.0000      -0.477082       -12.9821
  31   2.0000      -0.457514       -12.4496
  32   2.0000      -0.441739       -12.0203
  33   2.0000      -0.430080       -11.7031
  34   2.0000      -0.425129       -11.5683
  35   2.0000      -0.423307       -11.5188
  36   2.0000      -0.407756       -11.0956
  37   2.0000      -0.386320       -10.5123
  38   2.0000      -0.383783       -10.4433
  39   2.0000      -0.370834       -10.0909
  40   2.0000      -0.364548        -9.9199
  41   2.0000      -0.362634        -9.8678
  42   2.0000      -0.357341        -9.7238
  43   2.0000      -0.340395        -9.2626
  44   2.0000      -0.331295        -9.0150
  45   2.0000      -0.318545        -8.6680
  46   2.0000      -0.288263        -7.8440
  47   2.0000      -0.275546        -7.4980
  48   2.0000      -0.264543        -7.1986
  49   2.0000      -0.248527        -6.7628
  50   2.0000      -0.239129        -6.5070
  51   0.0000       0.058397         1.5891
  52   0.0000       0.071540         1.9467
  53   0.0000       0.091716         2.4957
  54   0.0000       0.097875         2.6633
  55   0.0000       0.100457         2.7336

MULLIKEN ATOMIC CHARGES
-----------------------
   0 C :    0.312155
   1 C :   -0.258440
   2 C :   -0.309664
   3 C :   -0.025977
   4 O :   -0.507502
   5 H :    0.163387
   6 H :    0.150990
   7 H :    0.164009
   8 H :    0.153253
   9 H :    0.159247
  10 H :    0.154697
  11 H :    0.157328
  12 C :   -0.001015
  13 H :    0.148188
  14 H :    0.157192
  15 O :   -0.581913
  16 C :    0.047863
  17 C :    0.120810
  18 C :   -0.300925
  19 C :   -0.023437
  20 O :   -0.522872
  21 H :    0.156180
  22 H :    0.145113
  23 O :   -0.639688
  24 H :    0.149034
  25 H :    0.147776
  26 H :    0.144225
  27 H :    0.148560
  28 H :    0.391426
Sum of atomic charges:   -0.0000000

LOEWDIN ATOMIC CHARGES
----------------------
   0 C :    0.185492
   1 C :   -0.219333
   2 C :   -0.219430
   3 C :   -0.033342
   4 O :   -0.312840
   5 H :    0.109054
   6 H :    0.117312
   7 H :    0.127171
   8 H :    0.120720
   9 H :    0.116421
  10 H :    0.106252
  11 H :    0.110389
  12 C :   -0.037766
  13 H :    0.103303
  14 H :    0.110126
  15 O :   -0.353821
  16 C :    0.016786
  17 C :    0.041880
  18 C :   -0.236791
  19 C :   -0.033025
  20 O :   -0.325716
  21 H :    0.112839
  22 H :    0.104040
  23 O :   -0.436044
  24 H :    0.120505
  25 H :    0.111995
  26 H :    0.102522
  27 H :    0.105558
  28 H :    0.285741

  Mayer bond orders larger than 0.100000
B(  0-C ,  1-C ) :   0.9355 B(  0-C ,  4-O ) :   0.9301 B(  0-C ,  5-H ) :   0.9298
B(  0-C , 15-O ) :   0.7909 B(  1-C ,  2-C ) :   0.9511 B(  1-C ,  6-H ) :   0.9343
B(  1-C ,  7-H ) :   0.9353 B(  2-C ,  3-C ) :   0.9528 B(  2-C ,  8-H ) :   0.9438
B(  2-C ,  9-H ) :   0.9444 B(  3-C ,  4-O ) :   0.8225 B(  3-C , 10-H ) :   0.9288
B(  3-C , 11-H ) :   0.9390 B( 12-C , 13-H ) :   0.9252 B( 12-C , 14-H ) :   0.9183
B( 12-C , 15-O ) :   0.7733 B( 12-C , 16-C ) :   0.9007 B( 16-C , 17-C ) :   0.9141
B( 16-C , 20-O ) :   0.8572 B( 16-C , 21-H ) :   0.9283 B( 17-C , 18-C ) :   0.8999
B( 17-C , 22-H ) :   0.9300 B( 17-C , 23-O ) :   0.9368 B( 18-C , 19-C ) :   0.9386
B( 18-C , 24-H ) :   0.9455 B( 18-C , 25-H ) :   0.9429 B( 19-C , 20-O ) :   0.8314
B( 19-C , 26-H ) :   0.9337 B( 19-C , 27-H ) :   0.9385 B( 23-O , 28-H ) :   0.7226

FINAL SINGLE POINT ENERGY      -652.865226398212

DIPOLE MOMENT
-------------
                                X             Y             Z
Electronic contribution:     -1.23654      -1.26201      -1.16672
Nuclear contribution   :      2.28987       1.74730       1.49736
                        -----------------------------------------
Total Dipole Moment    :      1.05333       0.48529       0.33064
                        -----------------------------------------
Magnitude (a.u.)       :      1.20596
Magnitude (Debye)      :      3.06531

Rotational constants in cm-1:     0.053612     0.014287     0.012852
Rotational constants in MHz :  1607.239472   428.320405   385.280625

                             ****ORCA TERMINATED NORMALLY****
TOTAL RUN TIME: 0 days 0 hours 35 minutes 9 seconds 761 msec
