                         Program Version 4.2.0 -  RELEASE  -
|  1> # Test redundant internal optimization
|  2> #
|  3> ! RKS B3LYP  Opt TightSCF SmallPrint
|  4>
|  5> %basis
|  6>         Basis "6-31G"
|  7> end
|  8>
|  9> %geom
| 10> Constraints
| 11> { D 4  0  15  12  180.0   C } # D for Dihedral angle
| 12> { D 0  15  12  16  60.0   C } # D for Dihedral angle
| 13> { D 0  4  3  2   C } # D for Dihedral angle
| 14> { D 4  3  2  1   C } # D for Dihedral angle
| 15> { D 3  2  1  0   C } # D for Dihedral angle
| 16> { D 2  1  0  4   C } # D for Dihedral angle
| 17> { D 1  0  4  3   C } # D for Dihedral angle
| 18> { D 16  20  19  18   C } # D for Dihedral angle
| 19> { D 20  19  18  17   C } # D for Dihedral angle
| 20> { D 19  18  17  16   C } # D for Dihedral angle
| 21> { D 18  17  16  20   C } # D for Dihedral angle
| 22> { D 17  16  20  19   C } # D for Dihedral angle
| 23> { D 15  12  16  20   C } # D for Dihedral angle
| 24> end
| 25> end
| 26>
| 27>
| 28> #%pal
| 29> #nprocs 8
| 30> #end
| 31>
| 32> * xyz 0 1
| 33> C  -21.048   26.222   46.251
| 34> C  -20.361   27.558   45.944
| 35> C  -20.329   28.222   47.341
| 36> C  -20.110   27.022   48.296
| 37> O  -20.473   25.807   47.535
| 38> H  -20.833   25.428   45.533
| 39> H  -19.344   27.382   45.576
| 40> H  -20.898   28.157   45.201
| 41> H  -19.543   28.978   47.434
| 42> H  -21.289   28.710   47.548
| 43> H  -20.733   27.082   49.195
| 44> H  -19.064   26.913   48.597
| 45> C  -23.309   26.834   45.072
| 46> H  -24.383   26.934   45.270
| 47> H  -22.930   27.807   44.733
| 48> O  -22.586   26.394   46.375
| 49> C  -23.119   25.821   43.909
| 50> C  -23.773   24.473   44.232
| 51> C  -25.263   24.769   43.937
| 52> C  -25.196   25.743   42.733
| 53> O  -23.820   26.284   42.707
| 54> H  -22.058   25.760   43.657
| 55> H  -23.392   23.698   43.557
| 56> O  -23.529   24.011   45.695
| 57> H  -25.838   23.866   43.710
| 58> H  -25.729   25.255   44.802
| 59> H  -25.905   26.572   42.825
| 60> H  -25.363   25.239   41.778
| 61> H  -23.904   24.772   46.388
| 62> *
| 63>
| 64>                          ****END OF INPUT****
 Total Charge           Charge          ....    0
 Multiplicity           Mult            ....    1
 Number of Electrons    NEL             ....  102
FINAL SINGLE POINT ENERGY      -652.828538762675
FINAL SINGLE POINT ENERGY      -652.853481329835
FINAL SINGLE POINT ENERGY      -652.859792556967
FINAL SINGLE POINT ENERGY      -652.861731569375
FINAL SINGLE POINT ENERGY      -652.862280723815
FINAL SINGLE POINT ENERGY      -652.862503068913
FINAL SINGLE POINT ENERGY      -652.862538394604
FINAL SINGLE POINT ENERGY      -652.862542521112
                    ***********************HURRAY********************

CARTESIAN COORDINATES (ANGSTROEM)
---------------------------------
  C    -21.071359   26.219337   46.213982
  C    -20.294463   27.501605   45.929082
  C    -20.364275   28.229139   47.292943
  C    -20.301609   27.068753   48.305658
  O    -20.657018   25.846604   47.531209
  H    -20.867107   25.372076   45.556768
  H    -19.261004   27.236952   45.677409
  H    -20.700238   28.095417   45.105518
  H    -19.546565   28.943799   47.425960
  H    -21.311845   28.768696   47.380219
  H    -21.009424   27.173462   49.131055
  H    -19.297155   26.900466   48.703674
  C    -23.231468   26.857091   45.067002
  H    -24.267532   26.984703   45.389198
  H    -22.867815   27.825921   44.704405
  O    -22.522859   26.455107   46.287959
  C    -23.126335   25.830029   43.931164
  C    -23.776127   24.471000   44.241495
  C    -25.282031   24.782597   44.005042
  C    -25.256103   25.783696   42.832384
  O    -23.863423   26.328237   42.770413
  H    -22.087855   25.724363   43.603893
  H    -23.436440   23.733231   43.507953
  O    -23.464438   23.916518   45.534871
  H    -25.850742   23.877436   43.777300
  H    -25.707146   25.222962   44.913694
  H    -25.952200   26.618757   42.956675
  H    -25.444711   25.306626   41.866579
  H    -23.302714   24.638423   46.187496

 Multiplicity           Mult            ....    1
 Number of Electrons    NEL             ....  102
 Basis Dimension        Dim             ....  149

ORBITAL ENERGIES
----------------

  NO   OCC          E(Eh)            E(eV)
   0   2.0000     -19.159294      -521.3509
   1   2.0000     -19.148348      -521.0530
   2   2.0000     -19.144529      -520.9491
   3   2.0000     -19.122215      -520.3419
   4   2.0000     -10.288492      -279.9641
   5   2.0000     -10.239129      -278.6209
   6   2.0000     -10.237720      -278.5825
   7   2.0000     -10.235676      -278.5269
   8   2.0000     -10.230785      -278.3938
   9   2.0000     -10.230665      -278.3906
  10   2.0000     -10.195720      -277.4397
  11   2.0000     -10.193176      -277.3704
  12   2.0000     -10.183813      -277.1156
  13   2.0000      -1.063125       -28.9291
  14   2.0000      -1.028899       -27.9978
  15   2.0000      -1.006022       -27.3752
  16   2.0000      -0.996923       -27.1277
  17   2.0000      -0.794043       -21.6070
  18   2.0000      -0.776389       -21.1266
  19   2.0000      -0.769094       -20.9281
  20   2.0000      -0.740442       -20.1485
  21   2.0000      -0.683746       -18.6057
  22   2.0000      -0.610251       -16.6058
  23   2.0000      -0.606824       -16.5125
  24   2.0000      -0.599889       -16.3238
  25   2.0000      -0.571182       -15.5426
  26   2.0000      -0.534414       -14.5421
  27   2.0000      -0.520172       -14.1546
  28   2.0000      -0.500435       -13.6175
  29   2.0000      -0.490380       -13.3439
  30   2.0000      -0.472690       -12.8625
  31   2.0000      -0.462973       -12.5981
  32   2.0000      -0.450241       -12.2517
  33   2.0000      -0.430777       -11.7220
  34   2.0000      -0.424403       -11.5486
  35   2.0000      -0.422098       -11.4859
  36   2.0000      -0.407594       -11.0912
  37   2.0000      -0.397538       -10.8176
  38   2.0000      -0.383466       -10.4346
  39   2.0000      -0.373217       -10.1558
  40   2.0000      -0.364741        -9.9251
  41   2.0000      -0.363390        -9.8883
  42   2.0000      -0.352606        -9.5949
  43   2.0000      -0.338264        -9.2046
  44   2.0000      -0.325639        -8.8611
  45   2.0000      -0.314397        -8.5552
  46   2.0000      -0.299215        -8.1421
  47   2.0000      -0.274538        -7.4706
  48   2.0000      -0.266066        -7.2400
  49   2.0000      -0.253966        -6.9108
  50   2.0000      -0.241809        -6.5799
  51   0.0000       0.057224         1.5571
  52   0.0000       0.073133         1.9900
  53   0.0000       0.088842         2.4175
  54   0.0000       0.092644         2.5210
  55   0.0000       0.104275         2.8375

MULLIKEN ATOMIC CHARGES
-----------------------
   0 C :    0.293321
   1 C :   -0.283459
   2 C :   -0.296708
   3 C :   -0.003868
   4 O :   -0.501386
   5 H :    0.162583
   6 H :    0.154852
   7 H :    0.149087
   8 H :    0.146077
   9 H :    0.160124
  10 H :    0.157481
  11 H :    0.146954
  12 C :   -0.040885
  13 H :    0.161202
  14 H :    0.150573
  15 O :   -0.532450
  16 C :    0.048368
  17 C :    0.114399
  18 C :   -0.308682
  19 C :   -0.019971
  20 O :   -0.522814
  21 H :    0.152484
  22 H :    0.153293
  23 O :   -0.629407
  24 H :    0.156669
  25 H :    0.145556
  26 H :    0.145283
  27 H :    0.149305
  28 H :    0.392019
Sum of atomic charges:   -0.0000000

LOEWDIN ATOMIC CHARGES
----------------------
   0 C :    0.174128
   1 C :   -0.229329
   2 C :   -0.215629
   3 C :   -0.024374
   4 O :   -0.299251
   5 H :    0.105652
   6 H :    0.119836
   7 H :    0.116608
   8 H :    0.116399
   9 H :    0.117711
  10 H :    0.111359
  11 H :    0.105448
  12 C :   -0.054307
  13 H :    0.116178
  14 H :    0.105016
  15 O :   -0.338607
  16 C :    0.001931
  17 C :    0.039707
  18 C :   -0.239369
  19 C :   -0.031562
  20 O :   -0.324436
  21 H :    0.109136
  22 H :    0.110048
  23 O :   -0.425378
  24 H :    0.123610
  25 H :    0.111111
  26 H :    0.103353
  27 H :    0.106694
  28 H :    0.288314

  Mayer bond orders larger than 0.100000
B(  0-C ,  1-C ) :   0.9344 B(  0-C ,  4-O ) :   0.9394 B(  0-C ,  5-H ) :   0.9143
B(  0-C , 15-O ) :   0.7891 B(  1-C ,  2-C ) :   0.9494 B(  1-C ,  6-H ) :   0.9342
B(  1-C ,  7-H ) :   0.9305 B(  2-C ,  3-C ) :   0.9557 B(  2-C ,  8-H ) :   0.9446
B(  2-C ,  9-H ) :   0.9451 B(  3-C ,  4-O ) :   0.8299 B(  3-C , 10-H ) :   0.9346
B(  3-C , 11-H ) :   0.9395 B( 12-C , 13-H ) :   0.9371 B( 12-C , 14-H ) :   0.9190
B( 12-C , 15-O ) :   0.8167 B( 12-C , 16-C ) :   0.8812 B( 16-C , 17-C ) :   0.9039
B( 16-C , 20-O ) :   0.8476 B( 16-C , 21-H ) :   0.9294 B( 17-C , 18-C ) :   0.9015
B( 17-C , 22-H ) :   0.9332 B( 17-C , 23-O ) :   0.9361 B( 18-C , 19-C ) :   0.9386
B( 18-C , 24-H ) :   0.9432 B( 18-C , 25-H ) :   0.9430 B( 19-C , 20-O ) :   0.8311
B( 19-C , 26-H ) :   0.9338 B( 19-C , 27-H ) :   0.9389 B( 23-O , 28-H ) :   0.7286

FINAL SINGLE POINT ENERGY      -652.862542808253

DIPOLE MOMENT
-------------
                                X             Y             Z
Electronic contribution:      0.06345      -3.44052       0.13513
Nuclear contribution   :      0.05812       4.71014      -0.35195
                        -----------------------------------------
Total Dipole Moment    :      0.12157       1.26962      -0.21683
                        -----------------------------------------
Magnitude (a.u.)       :      1.29373
Magnitude (Debye)      :      3.28839

Rotational constants in cm-1:     0.062370     0.013799     0.012340
Rotational constants in MHz :  1869.808125   413.694911   369.932425

                             ****ORCA TERMINATED NORMALLY****
TOTAL RUN TIME: 0 days 0 hours 28 minutes 43 seconds 181 msec
