                         Program Version 4.2.0 -  RELEASE  -
|  1> # Test redundant internal optimization
|  2> #
|  3> ! RKS B3LYP  Opt TightSCF SmallPrint
|  4>
|  5> %basis
|  6>         Basis "6-31G"
|  7> end
|  8>
|  9> %geom
| 10> Constraints
| 11> { D 4  0  15  12  105.0   C } # D for Dihedral angle
| 12> { D 0  15  12  16  120.0   C } # D for Dihedral angle
| 13> { D 0  4  3  2   C } # D for Dihedral angle
| 14> { D 4  3  2  1   C } # D for Dihedral angle
| 15> { D 3  2  1  0   C } # D for Dihedral angle
| 16> { D 2  1  0  4   C } # D for Dihedral angle
| 17> { D 1  0  4  3   C } # D for Dihedral angle
| 18> { D 16  20  19  18   C } # D for Dihedral angle
| 19> { D 20  19  18  17   C } # D for Dihedral angle
| 20> { D 19  18  17  16   C } # D for Dihedral angle
| 21> { D 18  17  16  20   C } # D for Dihedral angle
| 22> { D 17  16  20  19   C } # D for Dihedral angle
| 23> { D 15  12  16  20   C } # D for Dihedral angle
| 24> end
| 25> end
| 26>
| 27>
| 28> #%pal
| 29> #nprocs 8
| 30> #end
| 31>
| 32> * xyz 0 1
| 33> C  -21.048   26.222   46.251
| 34> C  -20.361   27.558   45.944
| 35> C  -20.329   28.222   47.341
| 36> C  -20.110   27.022   48.296
| 37> O  -20.473   25.807   47.535
| 38> H  -20.833   25.428   45.533
| 39> H  -19.344   27.382   45.576
| 40> H  -20.898   28.157   45.201
| 41> H  -19.543   28.978   47.434
| 42> H  -21.289   28.710   47.548
| 43> H  -20.733   27.082   49.195
| 44> H  -19.064   26.913   48.597
| 45> C  -23.085   27.864   46.420
| 46> H  -23.610   28.039   47.367
| 47> H  -22.237   28.559   46.365
| 48> O  -22.586   26.394   46.375
| 49> C  -24.053   28.206   45.254
| 50> C  -23.416   27.900   43.893
| 51> C  -23.600   26.366   43.800
| 52> C  -24.962   26.132   44.499
| 53> O  -25.237   27.343   45.301
| 54> H  -24.401   29.234   45.368
| 55> H  -23.972   28.405   43.096
| 56> O  -21.928   28.334   43.804
| 57> H  -23.591   25.999   42.769
| 58> H  -22.794   25.857   44.344
| 59> H  -24.950   25.258   45.160
| 60> H  -25.784   26.025   43.785
| 61> H  -21.352   27.840   44.594
| 62> *
| 63>
| 64>                          ****END OF INPUT****
 Total Charge           Charge          ....    0
 Multiplicity           Mult            ....    1
 Number of Electrons    NEL             ....  102
FINAL SINGLE POINT ENERGY      -652.741434920695
FINAL SINGLE POINT ENERGY      -652.784031268412
FINAL SINGLE POINT ENERGY      -652.811235306801
FINAL SINGLE POINT ENERGY      -652.827340229499
FINAL SINGLE POINT ENERGY      -652.835964278764
FINAL SINGLE POINT ENERGY      -652.839938633154
FINAL SINGLE POINT ENERGY      -652.841362023868
FINAL SINGLE POINT ENERGY      -652.841818591996
FINAL SINGLE POINT ENERGY      -652.842071222916
FINAL SINGLE POINT ENERGY      -652.842410635458
FINAL SINGLE POINT ENERGY      -652.849470318503
FINAL SINGLE POINT ENERGY      -652.851235631754
FINAL SINGLE POINT ENERGY      -652.851499831340
FINAL SINGLE POINT ENERGY      -652.851661451334
FINAL SINGLE POINT ENERGY      -652.851742144340
FINAL SINGLE POINT ENERGY      -652.851824264838
FINAL SINGLE POINT ENERGY      -652.851845396626
FINAL SINGLE POINT ENERGY      -652.851849810374
FINAL SINGLE POINT ENERGY      -652.851849789739
                    ***********************HURRAY********************

CARTESIAN COORDINATES (ANGSTROEM)
---------------------------------
  C    -21.171286   26.286453   46.527135
  C    -20.212072   27.401588   46.087849
  C    -20.003938   28.193728   47.411183
  C    -20.037940   27.069781   48.478053
  O    -20.676631   25.904410   47.830962
  H    -21.102000   25.380895   45.922090
  H    -19.271254   26.934376   45.777362
  H    -20.604109   28.003015   45.266349
  H    -19.053516   28.736821   47.420683
  H    -20.801536   28.923159   47.575815
  H    -20.610806   27.341692   49.369875
  H    -19.035084   26.754989   48.782296
  C    -23.201186   27.886779   46.499973
  H    -23.818051   27.984714   47.399515
  H    -22.454944   28.686323   46.489434
  O    -22.593841   26.565102   46.548509
  C    -24.122103   28.079702   45.289706
  C    -23.520260   27.939820   43.882140
  C    -23.574533   26.399683   43.661757
  C    -24.879753   26.002342   44.389440
  O    -25.214527   27.118913   45.298341
  H    -24.582774   29.068422   45.414574
  H    -24.187918   28.443916   43.170206
  O    -22.201895   28.540711   43.824331
  H    -23.591053   26.126806   42.600904
  H    -22.705804   25.944367   44.138169
  H    -24.761585   25.091220   44.981180
  H    -25.723460   25.882694   43.701657
  H    -21.869139   28.543577   42.905513

 Multiplicity           Mult            ....    1
 Number of Electrons    NEL             ....  102
 Basis Dimension        Dim             ....  149

ORBITAL ENERGIES
----------------

  NO   OCC          E(Eh)            E(eV)
   0   2.0000     -19.158579      -521.3314
   1   2.0000     -19.131558      -520.5962
   2   2.0000     -19.130689      -520.5725
   3   2.0000     -19.128229      -520.5056
   4   2.0000     -10.270921      -279.4860
   5   2.0000     -10.247492      -278.8484
   6   2.0000     -10.231428      -278.4113
   7   2.0000     -10.222990      -278.1817
   8   2.0000     -10.220799      -278.1221
   9   2.0000     -10.218517      -278.0600
  10   2.0000     -10.183835      -277.1162
  11   2.0000     -10.183161      -277.0979
  12   2.0000     -10.176079      -276.9052
  13   2.0000      -1.041637       -28.3444
  14   2.0000      -1.035455       -28.1762
  15   2.0000      -1.015133       -27.6232
  16   2.0000      -0.983080       -26.7510
  17   2.0000      -0.778200       -21.1759
  18   2.0000      -0.776967       -21.1423
  19   2.0000      -0.765806       -20.8386
  20   2.0000      -0.726488       -19.7687
  21   2.0000      -0.676661       -18.4129
  22   2.0000      -0.603787       -16.4299
  23   2.0000      -0.595217       -16.1967
  24   2.0000      -0.592840       -16.1320
  25   2.0000      -0.551890       -15.0177
  26   2.0000      -0.531826       -14.4717
  27   2.0000      -0.509447       -13.8628
  28   2.0000      -0.499128       -13.5820
  29   2.0000      -0.488106       -13.2821
  30   2.0000      -0.457698       -12.4546
  31   2.0000      -0.451408       -12.2834
  32   2.0000      -0.441245       -12.0069
  33   2.0000      -0.430166       -11.7054
  34   2.0000      -0.425304       -11.5731
  35   2.0000      -0.410690       -11.1754
  36   2.0000      -0.403404       -10.9772
  37   2.0000      -0.392766       -10.6877
  38   2.0000      -0.372695       -10.1415
  39   2.0000      -0.368274       -10.0212
  40   2.0000      -0.359423        -9.7804
  41   2.0000      -0.354531        -9.6473
  42   2.0000      -0.341458        -9.2916
  43   2.0000      -0.332182        -9.0391
  44   2.0000      -0.304762        -8.2930
  45   2.0000      -0.299487        -8.1495
  46   2.0000      -0.282696        -7.6926
  47   2.0000      -0.277838        -7.5604
  48   2.0000      -0.259234        -7.0541
  49   2.0000      -0.247514        -6.7352
  50   2.0000      -0.230412        -6.2698
  51   0.0000       0.046372         1.2618
  52   0.0000       0.079556         2.1648
  53   0.0000       0.094374         2.5681
  54   0.0000       0.101978         2.7750
  55   0.0000       0.113575         3.0905

MULLIKEN ATOMIC CHARGES
-----------------------
   0 C :    0.325613
   1 C :   -0.324115
   2 C :   -0.311309
   3 C :   -0.003782
   4 O :   -0.504069
   5 H :    0.148300
   6 H :    0.143441
   7 H :    0.196608
   8 H :    0.139823
   9 H :    0.149008
  10 H :    0.143340
  11 H :    0.140373
  12 C :    0.009388
  13 H :    0.157276
  14 H :    0.140242
  15 O :   -0.539009
  16 C :    0.093984
  17 C :    0.085547
  18 C :   -0.308718
  19 C :    0.000620
  20 O :   -0.517832
  21 H :    0.142000
  22 H :    0.141161
  23 O :   -0.609848
  24 H :    0.127099
  25 H :    0.173349
  26 H :    0.159624
  27 H :    0.136091
  28 H :    0.365796
Sum of atomic charges:   -0.0000000

LOEWDIN ATOMIC CHARGES
----------------------
   0 C :    0.181079
   1 C :   -0.245735
   2 C :   -0.222562
   3 C :   -0.032074
   4 O :   -0.319385
   5 H :    0.101697
   6 H :    0.117536
   7 H :    0.135519
   8 H :    0.113232
   9 H :    0.107605
  10 H :    0.102321
  11 H :    0.101222
  12 C :   -0.034710
  13 H :    0.114817
  14 H :    0.105654
  15 O :   -0.329299
  16 C :    0.028917
  17 C :    0.034266
  18 C :   -0.242618
  19 C :   -0.022423
  20 O :   -0.319199
  21 H :    0.110372
  22 H :    0.098689
  23 O :   -0.413759
  24 H :    0.105750
  25 H :    0.125335
  26 H :    0.112305
  27 H :    0.097926
  28 H :    0.287523

  Mayer bond orders larger than 0.100000
B(  0-C ,  1-C ) :   0.9316 B(  0-C ,  4-O ) :   0.9040 B(  0-C ,  5-H ) :   0.9343
B(  0-C , 15-O ) :   0.8702 B(  1-C ,  2-C ) :   0.9530 B(  1-C ,  6-H ) :   0.9352
B(  1-C ,  7-H ) :   0.8940 B(  2-C ,  3-C ) :   0.9459 B(  2-C ,  8-H ) :   0.9466
B(  2-C ,  9-H ) :   0.9383 B(  3-C ,  4-O ) :   0.8508 B(  3-C , 10-H ) :   0.9351
B(  3-C , 11-H ) :   0.9397 B( 12-C , 13-H ) :   0.9288 B( 12-C , 14-H ) :   0.8949
B( 12-C , 15-O ) :   0.8539 B( 12-C , 16-C ) :   0.9085 B( 16-C , 17-C ) :   0.9231
B( 16-C , 20-O ) :   0.8813 B( 16-C , 21-H ) :   0.9246 B( 17-C , 18-C ) :   0.9250
B( 17-C , 22-H ) :   0.9237 B( 17-C , 23-O ) :   0.8614 B( 18-C , 19-C ) :   0.9482
B( 18-C , 24-H ) :   0.9423 B( 18-C , 25-H ) :   0.9269 B( 19-C , 20-O ) :   0.8414
B( 19-C , 26-H ) :   0.9304 B( 19-C , 27-H ) :   0.9363 B( 23-O , 28-H ) :   0.7996

FINAL SINGLE POINT ENERGY      -652.851847471956

DIPOLE MOMENT
-------------
                                X             Y             Z
Electronic contribution:     -3.37087      -1.72013       0.55977
Nuclear contribution   :      4.15739       2.67689      -2.02455
                        -----------------------------------------
Total Dipole Moment    :      0.78651       0.95676      -1.46478
                        -----------------------------------------
Magnitude (a.u.)       :      1.91822
Magnitude (Debye)      :      4.87573

Rotational constants in cm-1:     0.050288     0.016615     0.015180
Rotational constants in MHz :  1507.587751   498.100954   455.076493

                             ****ORCA TERMINATED NORMALLY****
TOTAL RUN TIME: 0 days 1 hours 47 minutes 34 seconds 74 msec
