                         Program Version 4.2.0 -  RELEASE  -
|  1> # Test redundant internal optimization
|  2> #
|  3> ! RKS B3LYP  Opt TightSCF SmallPrint
|  4>
|  5> %basis
|  6>         Basis "6-31G"
|  7> end
|  8>
|  9> %geom
| 10> Constraints
| 11> { D 4  0  15  12  225.0   C } # D for Dihedral angle
| 12> { D 0  15  12  16  240.0   C } # D for Dihedral angle
| 13> { D 0  4  3  2   C } # D for Dihedral angle
| 14> { D 4  3  2  1   C } # D for Dihedral angle
| 15> { D 3  2  1  0   C } # D for Dihedral angle
| 16> { D 2  1  0  4   C } # D for Dihedral angle
| 17> { D 1  0  4  3   C } # D for Dihedral angle
| 18> { D 16  20  19  18   C } # D for Dihedral angle
| 19> { D 20  19  18  17   C } # D for Dihedral angle
| 20> { D 19  18  17  16   C } # D for Dihedral angle
| 21> { D 18  17  16  20   C } # D for Dihedral angle
| 22> { D 17  16  20  19   C } # D for Dihedral angle
| 23> { D 15  12  16  20   C } # D for Dihedral angle
| 24> end
| 25> end
| 26>
| 27>
| 28> #%pal
| 29> #nprocs 8
| 30> #end
| 31>
| 32> * xyz 0 1
| 33> C  -21.048   26.222   46.251
| 34> C  -20.361   27.558   45.944
| 35> C  -20.329   28.222   47.341
| 36> C  -20.110   27.022   48.296
| 37> O  -20.473   25.807   47.535
| 38> H  -20.833   25.428   45.533
| 39> H  -19.344   27.382   45.576
| 40> H  -20.898   28.157   45.201
| 41> H  -19.543   28.978   47.434
| 42> H  -21.289   28.710   47.548
| 43> H  -20.733   27.082   49.195
| 44> H  -19.064   26.913   48.597
| 45> C  -23.415   25.773   45.218
| 46> H  -22.735   25.299   44.499
| 47> H  -24.097   25.004   45.604
| 48> O  -22.586   26.394   46.375
| 49> C  -24.271   26.825   44.460
| 50> C  -25.162   26.162   43.404
| 51> C  -26.322   25.616   44.270
| 52> C  -26.474   26.692   45.374
| 53> O  -25.217   27.472   45.376
| 54> H  -23.616   27.608   44.072
| 55> H  -25.529   26.913   42.695
| 56> O  -24.433   25.049   42.603
| 57> H  -27.245   25.470   43.700
| 58> H  -26.042   24.650   44.708
| 59> H  -26.626   26.255   46.367
| 60> H  -27.288   27.392   45.165
| 61> H  -24.057   24.284   43.291
| 62> *
| 63>
| 64>                          ****END OF INPUT****
 Total Charge           Charge          ....    0
 Multiplicity           Mult            ....    1
 Number of Electrons    NEL             ....  102
FINAL SINGLE POINT ENERGY      -652.825974016532
FINAL SINGLE POINT ENERGY      -652.848846734149
FINAL SINGLE POINT ENERGY      -652.853098451433
FINAL SINGLE POINT ENERGY      -652.853914045423
FINAL SINGLE POINT ENERGY      -652.854064982763
FINAL SINGLE POINT ENERGY      -652.854094964100
FINAL SINGLE POINT ENERGY      -652.854099652950
                    ***********************HURRAY********************

CARTESIAN COORDINATES (ANGSTROEM)
---------------------------------
  C    -21.040033   26.187192   46.198060
  C    -20.425418   27.555042   45.905885
  C    -20.482798   28.235335   47.295032
  C    -20.228352   27.060853   48.263907
  O    -20.498495   25.827294   47.480482
  H    -20.774383   25.391206   45.494468
  H    -19.386737   27.426006   45.577330
  H    -20.972655   28.103821   45.135715
  H    -19.745194   29.035932   47.403710
  H    -21.480776   28.654175   47.453796
  H    -20.887951   27.070824   49.134836
  H    -19.187472   26.998760   48.595642
  C    -23.290516   25.692052   45.259263
  H    -22.652729   25.197760   44.511670
  H    -23.921562   24.930389   45.736897
  O    -22.485560   26.300462   46.300597
  C    -24.148984   26.741588   44.553345
  C    -25.067223   26.156525   43.467265
  C    -26.284972   25.665439   44.307005
  C    -26.378122   26.728520   45.423243
  O    -25.066740   27.425267   45.459048
  H    -23.489574   27.519657   44.155754
  H    -25.370644   26.951104   42.782233
  O    -24.458893   25.151776   42.618362
  H    -27.197329   25.592149   43.709085
  H    -26.068521   24.670339   44.718270
  H    -26.579043   26.296820   46.408350
  H    -27.136912   27.487199   45.209302
  H    -24.432411   24.285512   43.073448

 Multiplicity           Mult            ....    1
 Number of Electrons    NEL             ....  102
 Basis Dimension        Dim             ....  149

ORBITAL ENERGIES
----------------

  NO   OCC          E(Eh)            E(eV)
   0   2.0000     -19.152877      -521.1763
   1   2.0000     -19.137770      -520.7652
   2   2.0000     -19.135489      -520.7031
   3   2.0000     -19.134465      -520.6753
   4   2.0000     -10.276241      -279.6307
   5   2.0000     -10.247349      -278.8445
   6   2.0000     -10.232045      -278.4281
   7   2.0000     -10.231433      -278.4114
   8   2.0000     -10.231050      -278.4010
   9   2.0000     -10.219086      -278.0755
  10   2.0000     -10.198132      -277.5053
  11   2.0000     -10.180315      -277.0204
  12   2.0000     -10.179160      -276.9890
  13   2.0000      -1.048175       -28.5223
  14   2.0000      -1.035424       -28.1753
  15   2.0000      -1.016807       -27.6687
  16   2.0000      -0.989806       -26.9340
  17   2.0000      -0.785323       -21.3697
  18   2.0000      -0.780559       -21.2401
  19   2.0000      -0.766936       -20.8694
  20   2.0000      -0.728623       -19.8268
  21   2.0000      -0.680154       -18.5079
  22   2.0000      -0.613979       -16.7072
  23   2.0000      -0.593092       -16.1389
  24   2.0000      -0.591222       -16.0880
  25   2.0000      -0.578025       -15.7289
  26   2.0000      -0.528364       -14.3775
  27   2.0000      -0.512468       -13.9450
  28   2.0000      -0.497354       -13.5337
  29   2.0000      -0.488567       -13.2946
  30   2.0000      -0.465852       -12.6765
  31   2.0000      -0.454418       -12.3653
  32   2.0000      -0.444680       -12.1003
  33   2.0000      -0.437167       -11.8959
  34   2.0000      -0.428352       -11.6560
  35   2.0000      -0.419551       -11.4166
  36   2.0000      -0.407416       -11.0864
  37   2.0000      -0.396464       -10.7883
  38   2.0000      -0.377824       -10.2811
  39   2.0000      -0.367340        -9.9958
  40   2.0000      -0.356903        -9.7118
  41   2.0000      -0.351825        -9.5736
  42   2.0000      -0.346272        -9.4225
  43   2.0000      -0.330111        -8.9828
  44   2.0000      -0.318850        -8.6764
  45   2.0000      -0.309055        -8.4098
  46   2.0000      -0.300554        -8.1785
  47   2.0000      -0.273892        -7.4530
  48   2.0000      -0.261077        -7.1043
  49   2.0000      -0.251998        -6.8572
  50   2.0000      -0.233169        -6.3448
  51   0.0000       0.048066         1.3079
  52   0.0000       0.077591         2.1113
  53   0.0000       0.084406         2.2968
  54   0.0000       0.088527         2.4089
  55   0.0000       0.101182         2.7533

MULLIKEN ATOMIC CHARGES
-----------------------
   0 C :    0.280709
   1 C :   -0.253926
   2 C :   -0.301273
   3 C :   -0.000550
   4 O :   -0.502773
   5 H :    0.136369
   6 H :    0.139857
   7 H :    0.145434
   8 H :    0.138923
   9 H :    0.171654
  10 H :    0.153352
  11 H :    0.138525
  12 C :   -0.013332
  13 H :    0.127422
  14 H :    0.134756
  15 O :   -0.502111
  16 C :    0.095729
  17 C :    0.083731
  18 C :   -0.326950
  19 C :   -0.006953
  20 O :   -0.503698
  21 H :    0.152846
  22 H :    0.168949
  23 O :   -0.603281
  24 H :    0.158197
  25 H :    0.134342
  26 H :    0.147479
  27 H :    0.149279
  28 H :    0.357295
Sum of atomic charges:   -0.0000000

LOEWDIN ATOMIC CHARGES
----------------------
   0 C :    0.176983
   1 C :   -0.224272
   2 C :   -0.216951
   3 C :   -0.025570
   4 O :   -0.312144
   5 H :    0.095293
   6 H :    0.110955
   7 H :    0.116004
   8 H :    0.113003
   9 H :    0.124026
  10 H :    0.108892
  11 H :    0.100578
  12 C :   -0.045796
  13 H :    0.097881
  14 H :    0.098687
  15 O :   -0.321210
  16 C :    0.014759
  17 C :    0.033538
  18 C :   -0.241243
  19 C :   -0.028655
  20 O :   -0.314013
  21 H :    0.112651
  22 H :    0.119772
  23 O :   -0.409828
  24 H :    0.122616
  25 H :    0.104273
  26 H :    0.105100
  27 H :    0.106038
  28 H :    0.278634

  Mayer bond orders larger than 0.100000
B(  0-C ,  1-C ) :   0.9370 B(  0-C ,  4-O ) :   0.9355 B(  0-C ,  5-H ) :   0.9170
B(  0-C , 15-O ) :   0.8447 B(  1-C ,  2-C ) :   0.9568 B(  1-C ,  6-H ) :   0.9353
B(  1-C ,  7-H ) :   0.9370 B(  2-C ,  3-C ) :   0.9549 B(  2-C ,  8-H ) :   0.9452
B(  2-C ,  9-H ) :   0.9412 B(  3-C ,  4-O ) :   0.8362 B(  3-C , 10-H ) :   0.9347
B(  3-C , 11-H ) :   0.9399 B( 12-C , 13-H ) :   0.9032 B( 12-C , 14-H ) :   0.9302
B( 12-C , 15-O ) :   0.8585 B( 12-C , 16-C ) :   0.8942 B( 16-C , 17-C ) :   0.8683
B( 16-C , 20-O ) :   0.8747 B( 16-C , 21-H ) :   0.9318 B( 17-C , 18-C ) :   0.9272
B( 17-C , 22-H ) :   0.9320 B( 17-C , 23-O ) :   0.8926 B( 18-C , 19-C ) :   0.9370
B( 18-C , 24-H ) :   0.9418 B( 18-C , 25-H ) :   0.9401 B( 19-C , 20-O ) :   0.8509
B( 19-C , 26-H ) :   0.9316 B( 19-C , 27-H ) :   0.9376 B( 23-O , 28-H ) :   0.7981

FINAL SINGLE POINT ENERGY      -652.854100238093

DIPOLE MOMENT
-------------
                                X             Y             Z
Electronic contribution:     -0.24898      -1.71575      -0.38278
Nuclear contribution   :     -0.12242       1.55772      -0.00520
                        -----------------------------------------
Total Dipole Moment    :     -0.37140      -0.15803      -0.38798
                        -----------------------------------------
Magnitude (a.u.)       :      0.55985
Magnitude (Debye)      :      1.42303

Rotational constants in cm-1:     0.057271     0.012147     0.011332
Rotational constants in MHz :  1716.954823   364.161773   339.717441

                             ****ORCA TERMINATED NORMALLY****
TOTAL RUN TIME: 0 days 1 hours 14 minutes 9 seconds 269 msec
