                         Program Version 4.2.0 -  RELEASE  -
|  1> # Test redundant internal optimization
|  2> #
|  3> ! RKS B3LYP  Opt TightSCF SmallPrint
|  4>
|  5> %basis
|  6>         Basis "6-31G"
|  7> end
|  8>
|  9> %geom
| 10> Constraints
| 11> { D 4  0  15  12  315.0   C } # D for Dihedral angle
| 12> { D 0  15  12  16  300.0   C } # D for Dihedral angle
| 13> { D 0  4  3  2   C } # D for Dihedral angle
| 14> { D 4  3  2  1   C } # D for Dihedral angle
| 15> { D 3  2  1  0   C } # D for Dihedral angle
| 16> { D 2  1  0  4   C } # D for Dihedral angle
| 17> { D 1  0  4  3   C } # D for Dihedral angle
| 18> { D 16  20  19  18   C } # D for Dihedral angle
| 19> { D 20  19  18  17   C } # D for Dihedral angle
| 20> { D 19  18  17  16   C } # D for Dihedral angle
| 21> { D 18  17  16  20   C } # D for Dihedral angle
| 22> { D 17  16  20  19   C } # D for Dihedral angle
| 23> { D 15  12  16  20   C } # D for Dihedral angle
| 24> end
| 25> end
| 26>
| 27>
| 28> #%pal
| 29> #nprocs 8
| 30> #end
| 31>
| 32> * xyz 0 1
| 33> C  -21.048   26.222   46.251
| 34> C  -20.361   27.558   45.944
| 35> C  -20.329   28.222   47.341
| 36> C  -20.110   27.022   48.296
| 37> O  -20.473   25.807   47.535
| 38> H  -20.833   25.428   45.533
| 39> H  -19.344   27.382   45.576
| 40> H  -20.898   28.157   45.201
| 41> H  -19.543   28.978   47.434
| 42> H  -21.289   28.710   47.548
| 43> H  -20.733   27.082   49.195
| 44> H  -19.064   26.913   48.597
| 45> C  -23.319   25.255   47.135
| 46> H  -22.932   25.196   48.160
| 47> H  -24.396   25.458   47.186
| 48> O  -22.586   26.394   46.375
| 49> C  -23.131   23.867   46.462
| 50> C  -21.665   23.423   46.501
| 51> C  -21.530   22.909   47.954
| 52> C  -22.918   22.279   48.233
| 53> O  -23.842   22.830   47.219
| 54> H  -23.571   23.891   45.463
| 55> O  -21.430   22.270   45.487
| 56> H  -20.963   24.232   46.269
| 57> H  -20.714   22.190   48.076
| 58> H  -21.342   23.748   48.634
| 59> H  -23.295   22.523   49.232
| 60> H  -22.916   21.193   48.112
| 61> H  -22.122   21.446   45.699
| 62> *
| 63>
| 64>                          ****END OF INPUT****
 Total Charge           Charge          ....    0
 Multiplicity           Mult            ....    1
 Number of Electrons    NEL             ....  102
FINAL SINGLE POINT ENERGY      -652.820346370758
FINAL SINGLE POINT ENERGY      -652.846255895029
FINAL SINGLE POINT ENERGY      -652.861589000549
FINAL SINGLE POINT ENERGY      -652.863670225795
FINAL SINGLE POINT ENERGY      -652.864138736144
FINAL SINGLE POINT ENERGY      -652.864176970769
                    ***********************HURRAY********************

CARTESIAN COORDINATES (ANGSTROEM)
---------------------------------
  C    -20.939147   26.293015   46.229530
  C    -20.454825   27.725459   45.997606
  C    -20.487359   28.304642   47.430669
  C    -20.083079   27.099282   48.308801
  O    -20.293402   25.891643   47.464157
  H    -20.630049   25.574559   45.468101
  H    -19.433634   27.700281   45.600909
  H    -21.097615   28.265196   45.299602
  H    -19.808508   29.153197   47.557174
  H    -21.502412   28.633378   47.669701
  H    -20.687283   27.005251   49.214873
  H    -19.023665   27.105998   48.580537
  C    -23.105310   25.263377   47.000858
  H    -22.820455   25.237010   48.059849
  H    -24.148783   25.575579   46.933502
  O    -22.372560   26.343618   46.342499
  C    -23.002792   23.831715   46.436540
  C    -21.641439   23.116779   46.448349
  C    -21.512297   22.702013   47.941685
  C    -22.975160   22.375459   48.335111
  O    -23.844447   23.010700   47.318471
  H    -23.442197   23.786503   45.435411
  O    -21.686932   21.961507   45.560648
  H    -20.795929   23.702807   46.106452
  H    -20.841322   21.846251   48.049748
  H    -21.108837   23.542537   48.512801
  H    -23.246014   22.760716   49.322816
  H    -23.186269   21.301322   48.311876
  H    -22.525279   21.475205   45.709725

 Multiplicity           Mult            ....    1
 Number of Electrons    NEL             ....  102
 Basis Dimension        Dim             ....  149

ORBITAL ENERGIES
----------------

  NO   OCC          E(Eh)            E(eV)
   0   2.0000     -19.151405      -521.1362
   1   2.0000     -19.144465      -520.9474
   2   2.0000     -19.143085      -520.9098
   3   2.0000     -19.132473      -520.6211
   4   2.0000     -10.282276      -279.7949
   5   2.0000     -10.234312      -278.4898
   6   2.0000     -10.232978      -278.4535
   7   2.0000     -10.231776      -278.4208
   8   2.0000     -10.227862      -278.3143
   9   2.0000     -10.227412      -278.3020
  10   2.0000     -10.189216      -277.2627
  11   2.0000     -10.187836      -277.2251
  12   2.0000     -10.179469      -276.9974
  13   2.0000      -1.058667       -28.8078
  14   2.0000      -1.034525       -28.1509
  15   2.0000      -1.001871       -27.2623
  16   2.0000      -0.995539       -27.0900
  17   2.0000      -0.792963       -21.5776
  18   2.0000      -0.771433       -20.9918
  19   2.0000      -0.764385       -20.8000
  20   2.0000      -0.737114       -20.0579
  21   2.0000      -0.673824       -18.3357
  22   2.0000      -0.605328       -16.4718
  23   2.0000      -0.600124       -16.3302
  24   2.0000      -0.595948       -16.2166
  25   2.0000      -0.575457       -15.6590
  26   2.0000      -0.523101       -14.2343
  27   2.0000      -0.515574       -14.0295
  28   2.0000      -0.502857       -13.6834
  29   2.0000      -0.479772       -13.0553
  30   2.0000      -0.468993       -12.7620
  31   2.0000      -0.458080       -12.4650
  32   2.0000      -0.453778       -12.3479
  33   2.0000      -0.429730       -11.6936
  34   2.0000      -0.418401       -11.3853
  35   2.0000      -0.415877       -11.3166
  36   2.0000      -0.405982       -11.0473
  37   2.0000      -0.387639       -10.5482
  38   2.0000      -0.376335       -10.2406
  39   2.0000      -0.363856        -9.9010
  40   2.0000      -0.361428        -9.8349
  41   2.0000      -0.356862        -9.7107
  42   2.0000      -0.351490        -9.5645
  43   2.0000      -0.335893        -9.1401
  44   2.0000      -0.323800        -8.8111
  45   2.0000      -0.305338        -8.3087
  46   2.0000      -0.301922        -8.2157
  47   2.0000      -0.275383        -7.4936
  48   2.0000      -0.266249        -7.2450
  49   2.0000      -0.260342        -7.0843
  50   2.0000      -0.239350        -6.5131
  51   0.0000       0.068984         1.8771
  52   0.0000       0.073419         1.9978
  53   0.0000       0.095004         2.5852
  54   0.0000       0.098575         2.6824
  55   0.0000       0.109061         2.9677

MULLIKEN ATOMIC CHARGES
-----------------------
   0 C :    0.292098
   1 C :   -0.259988
   2 C :   -0.297192
   3 C :   -0.009234
   4 O :   -0.526312
   5 H :    0.151425
   6 H :    0.145512
   7 H :    0.163332
   8 H :    0.142949
   9 H :    0.163194
  10 H :    0.146613
  11 H :    0.148208
  12 C :    0.001680
  13 H :    0.136148
  14 H :    0.167525
  15 O :   -0.530174
  16 C :    0.034490
  17 C :    0.086824
  18 C :   -0.305339
  19 C :   -0.030148
  20 O :   -0.526830
  21 H :    0.159393
  22 O :   -0.606630
  23 H :    0.170897
  24 H :    0.157688
  25 H :    0.174390
  26 H :    0.143391
  27 H :    0.143690
  28 H :    0.362401
Sum of atomic charges:    0.0000000

LOEWDIN ATOMIC CHARGES
----------------------
   0 C :    0.171146
   1 C :   -0.213093
   2 C :   -0.215287
   3 C :   -0.028304
   4 O :   -0.335186
   5 H :    0.096723
   6 H :    0.113950
   7 H :    0.127807
   8 H :    0.114881
   9 H :    0.119851
  10 H :    0.104276
  11 H :    0.105419
  12 C :   -0.040956
  13 H :    0.098295
  14 H :    0.123687
  15 O :   -0.329325
  16 C :    0.006501
  17 C :    0.036206
  18 C :   -0.243085
  19 C :   -0.039595
  20 O :   -0.329308
  21 H :    0.113793
  22 O :   -0.418391
  23 H :    0.123179
  24 H :    0.124665
  25 H :    0.127644
  26 H :    0.102599
  27 H :    0.100855
  28 H :    0.281053

  Mayer bond orders larger than 0.100000
B(  0-C ,  1-C ) :   0.9468 B(  0-C ,  4-O ) :   0.8787 B(  0-C ,  5-H ) :   0.9116
B(  0-C , 15-O ) :   0.8635 B(  1-C ,  2-C ) :   0.9543 B(  1-C ,  6-H ) :   0.9395
B(  1-C ,  7-H ) :   0.9351 B(  2-C ,  3-C ) :   0.9561 B(  2-C ,  8-H ) :   0.9449
B(  2-C ,  9-H ) :   0.9436 B(  3-C ,  4-O ) :   0.8274 B(  3-C , 10-H ) :   0.9355
B(  3-C , 11-H ) :   0.9402 B( 12-C , 13-H ) :   0.9245 B( 12-C , 14-H ) :   0.9351
B( 12-C , 15-O ) :   0.8379 B( 12-C , 16-C ) :   0.8787 B( 16-C , 17-C ) :   0.9141
B( 16-C , 20-O ) :   0.8267 B( 16-C , 21-H ) :   0.9258 B( 17-C , 18-C ) :   0.9148
B( 17-C , 22-O ) :   0.8787 B( 17-C , 23-H ) :   0.9167 B( 18-C , 19-C ) :   0.9407
B( 18-C , 24-H ) :   0.9381 B( 18-C , 25-H ) :   0.9210 B( 19-C , 20-O ) :   0.8361
B( 19-C , 26-H ) :   0.9364 B( 19-C , 27-H ) :   0.9382 B( 22-O , 28-H ) :   0.7953

FINAL SINGLE POINT ENERGY      -652.864180925671

DIPOLE MOMENT
-------------
                                X             Y             Z
Electronic contribution:     -2.75450      -3.43554      -3.12386
Nuclear contribution   :      3.20096       4.17554       3.86492
                        -----------------------------------------
Total Dipole Moment    :      0.44646       0.73999       0.74107
                        -----------------------------------------
Magnitude (a.u.)       :      1.13847
Magnitude (Debye)      :      2.89375

Rotational constants in cm-1:     0.052548     0.014844     0.014734
Rotational constants in MHz :  1575.341067   445.020552   441.712529

                             ****ORCA TERMINATED NORMALLY****
TOTAL RUN TIME: 0 days 0 hours 34 minutes 0 seconds 497 msec
