                         Program Version 4.2.0 -  RELEASE  -
|  1> # Test redundant internal optimization
|  2> #
|  3> ! RKS B3LYP  Opt TightSCF SmallPrint
|  4>
|  5> %basis
|  6>         Basis "6-31G"
|  7> end
|  8>
|  9> %geom
| 10> Constraints
| 11> { D 4  0  15  12  105.0   C } # D for Dihedral angle
| 12> { D 0  15  12  16  45.0   C } # D for Dihedral angle
| 13> { D 0  4  3  2   C } # D for Dihedral angle
| 14> { D 4  3  2  1   C } # D for Dihedral angle
| 15> { D 3  2  1  0   C } # D for Dihedral angle
| 16> { D 2  1  0  4   C } # D for Dihedral angle
| 17> { D 1  0  4  3   C } # D for Dihedral angle
| 18> { D 16  20  19  18   C } # D for Dihedral angle
| 19> { D 20  19  18  17   C } # D for Dihedral angle
| 20> { D 19  18  17  16   C } # D for Dihedral angle
| 21> { D 18  17  16  20   C } # D for Dihedral angle
| 22> { D 17  16  20  19   C } # D for Dihedral angle
| 23> { D 15  12  16  20   C } # D for Dihedral angle
| 24> end
| 25> end
| 26>
| 27>
| 28> #%pal
| 29> #nprocs 8
| 30> #end
| 31>
| 32> * xyz 0 1
| 33> C  -21.048   26.222   46.251
| 34> C  -20.361   27.558   45.944
| 35> C  -20.329   28.222   47.341
| 36> C  -20.110   27.022   48.296
| 37> O  -20.473   25.807   47.535
| 38> H  -20.833   25.428   45.533
| 39> H  -19.344   27.382   45.576
| 40> H  -20.898   28.157   45.201
| 41> H  -19.543   28.978   47.434
| 42> H  -21.289   28.710   47.548
| 43> H  -20.733   27.082   49.195
| 44> H  -19.064   26.913   48.597
| 45> C  -23.085   27.864   46.420
| 46> H  -24.168   27.885   46.247
| 47> H  -22.886   28.307   47.405
| 48> O  -22.586   26.394   46.375
| 49> C  -22.402   28.763   45.352
| 50> C  -22.768   28.315   43.932
| 51> C  -24.180   28.924   43.765
| 52> C  -24.084   30.257   44.550
| 53> O  -22.909   30.137   45.439
| 54> H  -21.330   28.804   45.551
| 55> H  -22.070   28.753   43.209
| 56> O  -22.751   26.772   43.756
| 57> H  -24.456   29.076   42.717
| 58> H  -24.930   28.263   44.216
| 59> H  -24.974   30.451   45.157
| 60> H  -23.907   31.114   43.895
| 61> H  -23.443   26.313   44.471
| 62> *
| 63>
| 64>                          ****END OF INPUT****
 Total Charge           Charge          ....    0
 Multiplicity           Mult            ....    1
 Number of Electrons    NEL             ....  102
FINAL SINGLE POINT ENERGY      -652.692292431426
FINAL SINGLE POINT ENERGY      -652.818194165640
FINAL SINGLE POINT ENERGY      -652.841323352761
FINAL SINGLE POINT ENERGY      -652.846923368588
FINAL SINGLE POINT ENERGY      -652.847820430636
FINAL SINGLE POINT ENERGY      -652.848061756173
FINAL SINGLE POINT ENERGY      -652.848150721361
FINAL SINGLE POINT ENERGY      -652.848172655484
FINAL SINGLE POINT ENERGY      -652.848187643516
FINAL SINGLE POINT ENERGY      -652.848191487310
FINAL SINGLE POINT ENERGY      -652.848193473093
                    ***********************HURRAY********************

CARTESIAN COORDINATES (ANGSTROEM)
---------------------------------
  C    -21.161561   26.246307   46.453893
  C    -20.066022   27.224264   46.019600
  C    -19.822827   28.038905   47.320007
  C    -20.028432   26.974044   48.424555
  O    -20.771652   25.863374   47.786166
  H    -21.183636   25.324467   45.873075
  H    -19.177781   26.625718   45.786470
  H    -20.310097   27.806445   45.133823
  H    -18.823474   28.482221   47.352490
  H    -20.549995   28.852903   47.420473
  H    -20.605266   27.343998   49.276835
  H    -19.083551   26.557782   48.785420
  C    -23.171520   27.995388   46.357952
  H    -24.221600   27.772673   46.150460
  H    -23.128151   28.479765   47.342117
  O    -22.565703   26.658313   46.443224
  C    -22.630162   29.003444   45.330388
  C    -22.829092   28.580114   43.864297
  C    -24.333453   28.909612   43.643047
  C    -24.546149   30.177697   44.495806
  O    -23.403667   30.238498   45.458021
  H    -21.603244   29.286874   45.551436
  H    -22.205975   29.191324   43.207275
  O    -22.462824   27.210207   43.578493
  H    -24.563561   29.066190   42.585937
  H    -24.944289   28.070803   43.995813
  H    -25.482149   30.168491   45.061831
  H    -24.500332   31.095204   43.902294
  H    -22.777834   26.627976   44.306800

 Multiplicity           Mult            ....    1
 Number of Electrons    NEL             ....  102
 Basis Dimension        Dim             ....  149

ORBITAL ENERGIES
----------------

  NO   OCC          E(Eh)            E(eV)
   0   2.0000     -19.149364      -521.0807
   1   2.0000     -19.148901      -521.0681
   2   2.0000     -19.141393      -520.8638
   3   2.0000     -19.139084      -520.8009
   4   2.0000     -10.285921      -279.8941
   5   2.0000     -10.243919      -278.7512
   6   2.0000     -10.240413      -278.6558
   7   2.0000     -10.239843      -278.6403
   8   2.0000     -10.235189      -278.5137
   9   2.0000     -10.229480      -278.3583
  10   2.0000     -10.195773      -277.4411
  11   2.0000     -10.193641      -277.3831
  12   2.0000     -10.191794      -277.3328
  13   2.0000      -1.052284       -28.6341
  14   2.0000      -1.034545       -28.1514
  15   2.0000      -1.014241       -27.5989
  16   2.0000      -0.993969       -27.0473
  17   2.0000      -0.792420       -21.5628
  18   2.0000      -0.783294       -21.3145
  19   2.0000      -0.774551       -21.0766
  20   2.0000      -0.740654       -20.1542
  21   2.0000      -0.686843       -18.6900
  22   2.0000      -0.611456       -16.6386
  23   2.0000      -0.607416       -16.5286
  24   2.0000      -0.606172       -16.4948
  25   2.0000      -0.574928       -15.6446
  26   2.0000      -0.537506       -14.6263
  27   2.0000      -0.509923       -13.8757
  28   2.0000      -0.504558       -13.7297
  29   2.0000      -0.489507       -13.3202
  30   2.0000      -0.473339       -12.8802
  31   2.0000      -0.460463       -12.5298
  32   2.0000      -0.448167       -12.1952
  33   2.0000      -0.439393       -11.9565
  34   2.0000      -0.428514       -11.6605
  35   2.0000      -0.418309       -11.3828
  36   2.0000      -0.414672       -11.2838
  37   2.0000      -0.405046       -11.0219
  38   2.0000      -0.389242       -10.5918
  39   2.0000      -0.375087       -10.2066
  40   2.0000      -0.365249        -9.9389
  41   2.0000      -0.357599        -9.7308
  42   2.0000      -0.354346        -9.6422
  43   2.0000      -0.343025        -9.3342
  44   2.0000      -0.317188        -8.6311
  45   2.0000      -0.311871        -8.4864
  46   2.0000      -0.300330        -8.1724
  47   2.0000      -0.277962        -7.5637
  48   2.0000      -0.265786        -7.2324
  49   2.0000      -0.256808        -6.9881
  50   2.0000      -0.244847        -6.6626
  51   0.0000       0.052425         1.4265
  52   0.0000       0.068105         1.8532
  53   0.0000       0.082659         2.2493
  54   0.0000       0.093002         2.5307
  55   0.0000       0.102059         2.7772

MULLIKEN ATOMIC CHARGES
-----------------------
   0 C :    0.313626
   1 C :   -0.298756
   2 C :   -0.318460
   3 C :   -0.008130
   4 O :   -0.496815
   5 H :    0.166760
   6 H :    0.159152
   7 H :    0.167393
   8 H :    0.148499
   9 H :    0.154685
  10 H :    0.149699
  11 H :    0.147850
  12 C :   -0.028388
  13 H :    0.162330
  14 H :    0.157450
  15 O :   -0.551886
  16 C :    0.046827
  17 C :    0.105030
  18 C :   -0.317687
  19 C :   -0.015335
  20 O :   -0.522373
  21 H :    0.157383
  22 H :    0.159722
  23 O :   -0.620392
  24 H :    0.158118
  25 H :    0.148373
  26 H :    0.146459
  27 H :    0.151255
  28 H :    0.377610
Sum of atomic charges:   -0.0000000

LOEWDIN ATOMIC CHARGES
----------------------
   0 C :    0.182156
   1 C :   -0.233583
   2 C :   -0.223852
   3 C :   -0.030506
   4 O :   -0.311012
   5 H :    0.112324
   6 H :    0.125675
   7 H :    0.124372
   8 H :    0.118308
   9 H :    0.110334
  10 H :    0.105788
  11 H :    0.104935
  12 C :   -0.048950
  13 H :    0.115082
  14 H :    0.109011
  15 O :   -0.344142
  16 C :    0.000348
  17 C :    0.035837
  18 C :   -0.239954
  19 C :   -0.030606
  20 O :   -0.321002
  21 H :    0.112464
  22 H :    0.114350
  23 O :   -0.418728
  24 H :    0.124212
  25 H :    0.112396
  26 H :    0.104411
  27 H :    0.107521
  28 H :    0.282812

  Mayer bond orders larger than 0.100000
B(  0-C ,  1-C ) :   0.9265 B(  0-C ,  4-O ) :   0.9202 B(  0-C ,  5-H ) :   0.9329
B(  0-C , 15-O ) :   0.8402 B(  1-C ,  2-C ) :   0.9494 B(  1-C ,  6-H ) :   0.9298
B(  1-C ,  7-H ) :   0.9150 B(  2-C ,  3-C ) :   0.9453 B(  2-C ,  8-H ) :   0.9453
B(  2-C ,  9-H ) :   0.9361 B(  3-C ,  4-O ) :   0.8435 B(  3-C , 10-H ) :   0.9346
B(  3-C , 11-H ) :   0.9383 B( 12-C , 13-H ) :   0.9348 B( 12-C , 14-H ) :   0.9218
B( 12-C , 15-O ) :   0.8164 B( 12-C , 16-C ) :   0.8778 B( 16-C , 17-C ) :   0.8947
B( 16-C , 20-O ) :   0.8367 B( 16-C , 21-H ) :   0.9194 B( 17-C , 18-C ) :   0.9095
B( 17-C , 22-H ) :   0.9339 B( 17-C , 23-O ) :   0.9131 B( 18-C , 19-C ) :   0.9393
B( 18-C , 24-H ) :   0.9428 B( 18-C , 25-H ) :   0.9419 B( 19-C , 20-O ) :   0.8328
B( 19-C , 26-H ) :   0.9333 B( 19-C , 27-H ) :   0.9388 B( 23-O , 28-H ) :   0.7493

FINAL SINGLE POINT ENERGY      -652.848193950275

DIPOLE MOMENT
-------------
                                X             Y             Z
Electronic contribution:     -0.96898      -2.98426       0.50403
Nuclear contribution   :      1.09542       3.82460      -0.71944
                        -----------------------------------------
Total Dipole Moment    :      0.12644       0.84034      -0.21541
                        -----------------------------------------
Magnitude (a.u.)       :      0.87668
Magnitude (Debye)      :      2.22834

Rotational constants in cm-1:     0.054390     0.015553     0.014459
Rotational constants in MHz :  1630.580677   466.257385   433.458312

                             ****ORCA TERMINATED NORMALLY****
TOTAL RUN TIME: 0 days 0 hours 34 minutes 47 seconds 272 msec
