                         Program Version 4.2.0 -  RELEASE  -
|  1> # Test redundant internal optimization
|  2> #
|  3> ! RKS B3LYP  Opt TightSCF SmallPrint
|  4>
|  5> %basis
|  6>         Basis "6-31G"
|  7> end
|  8>
|  9> %geom
| 10> Constraints
| 11> { D 4  0  15  12  45.0   C } # D for Dihedral angle
| 12> { D 0  15  12  16  180.0   C } # D for Dihedral angle
| 13> { D 0  4  3  2   C } # D for Dihedral angle
| 14> { D 4  3  2  1   C } # D for Dihedral angle
| 15> { D 3  2  1  0   C } # D for Dihedral angle
| 16> { D 2  1  0  4   C } # D for Dihedral angle
| 17> { D 1  0  4  3   C } # D for Dihedral angle
| 18> { D 16  20  19  18   C } # D for Dihedral angle
| 19> { D 20  19  18  17   C } # D for Dihedral angle
| 20> { D 19  18  17  16   C } # D for Dihedral angle
| 21> { D 18  17  16  20   C } # D for Dihedral angle
| 22> { D 17  16  20  19   C } # D for Dihedral angle
| 23> { D 15  12  16  20   C } # D for Dihedral angle
| 24> end
| 25> end
| 26>
| 27>
| 28> #%pal
| 29> #nprocs 8
| 30> #end
| 31>
| 32> * xyz 0 1
| 33> C  -21.048   26.222   46.251
| 34> C  -20.361   27.558   45.944
| 35> C  -20.329   28.222   47.341
| 36> C  -20.110   27.022   48.296
| 37> O  -20.473   25.807   47.535
| 38> H  -20.833   25.428   45.533
| 39> H  -19.344   27.382   45.576
| 40> H  -20.898   28.157   45.201
| 41> H  -19.543   28.978   47.434
| 42> H  -21.289   28.710   47.548
| 43> H  -20.733   27.082   49.195
| 44> H  -19.064   26.913   48.597
| 45> C  -23.065   27.161   47.638
| 46> H  -22.727   26.628   48.535
| 47> H  -22.637   28.172   47.658
| 48> O  -22.586   26.394   46.375
| 49> C  -24.611   27.301   47.705
| 50> C  -25.041   28.161   48.899
| 51> C  -24.781   29.590   48.366
| 52> C  -25.132   29.474   46.862
| 53> O  -25.111   28.032   46.536
| 54> H  -25.062   26.307   47.678
| 55> O  -26.552   27.951   49.191
| 56> H  -24.479   27.939   49.813
| 57> H  -25.381   30.349   48.878
| 58> H  -23.725   29.854   48.496
| 59> H  -24.413   29.997   46.221
| 60> H  -26.138   29.840   46.639
| 61> H  -27.135   28.167   48.288
| 62> *
| 63>
| 64>                          ****END OF INPUT****
 Total Charge           Charge          ....    0
 Multiplicity           Mult            ....    1
 Number of Electrons    NEL             ....  102
FINAL SINGLE POINT ENERGY      -652.814877364681
FINAL SINGLE POINT ENERGY      -652.841224217694
FINAL SINGLE POINT ENERGY      -652.853280385286
FINAL SINGLE POINT ENERGY      -652.855444460790
FINAL SINGLE POINT ENERGY      -652.855817571082
FINAL SINGLE POINT ENERGY      -652.855863126367
FINAL SINGLE POINT ENERGY      -652.855868248222
                    ***********************HURRAY********************

CARTESIAN COORDINATES (ANGSTROEM)
---------------------------------
  C    -21.217230   26.324694   46.408443
  C    -20.352655   27.500390   45.930699
  C    -19.938136   28.165283   47.275078
  C    -19.785673   26.947481   48.220859
  O    -20.513854   25.828046   47.572713
  H    -21.241989   25.501832   45.692178
  H    -19.476151   27.102861   45.407894
  H    -20.895913   28.169750   45.259552
  H    -19.003818   28.729500   47.190671
  H    -20.709613   28.856969   47.623170
  H    -20.206832   27.117063   49.216534
  H    -18.744284   26.628997   48.323913
  C    -23.076809   27.294598   47.797254
  H    -22.803903   26.734364   48.701555
  H    -22.639604   28.299570   47.858131
  O    -22.620270   26.589773   46.615213
  C    -24.595877   27.397839   47.689965
  C    -25.255584   28.160894   48.848170
  C    -25.080490   29.634772   48.396211
  C    -25.231912   29.548254   46.857438
  O    -25.022292   28.126795   46.493106
  H    -25.004515   26.387705   47.592105
  O    -26.659006   27.802573   48.969931
  H    -24.817553   27.953211   49.825713
  H    -25.832259   30.273281   48.866409
  H    -24.088397   30.003427   48.680461
  H    -24.502894   30.165440   46.323502
  H    -26.235275   29.824494   46.519335
  H    -27.048211   27.728145   48.072795

 Multiplicity           Mult            ....    1
 Number of Electrons    NEL             ....  102
 Basis Dimension        Dim             ....  149

ORBITAL ENERGIES
----------------

  NO   OCC          E(Eh)            E(eV)
   0   2.0000     -19.145759      -520.9826
   1   2.0000     -19.140950      -520.8517
   2   2.0000     -19.140647      -520.8435
   3   2.0000     -19.139201      -520.8041
   4   2.0000     -10.277558      -279.6666
   5   2.0000     -10.244285      -278.7612
   6   2.0000     -10.234232      -278.4876
   7   2.0000     -10.233365      -278.4640
   8   2.0000     -10.233065      -278.4559
   9   2.0000     -10.230681      -278.3910
  10   2.0000     -10.195459      -277.4325
  11   2.0000     -10.191237      -277.3177
  12   2.0000     -10.188852      -277.2527
  13   2.0000      -1.054217       -28.6867
  14   2.0000      -1.036691       -28.2098
  15   2.0000      -1.007148       -27.4059
  16   2.0000      -0.994681       -27.0666
  17   2.0000      -0.790954       -21.5229
  18   2.0000      -0.786089       -21.3906
  19   2.0000      -0.771985       -21.0068
  20   2.0000      -0.734287       -19.9810
  21   2.0000      -0.677864       -18.4456
  22   2.0000      -0.606251       -16.4969
  23   2.0000      -0.606043       -16.4913
  24   2.0000      -0.597764       -16.2660
  25   2.0000      -0.578603       -15.7446
  26   2.0000      -0.526930       -14.3385
  27   2.0000      -0.507285       -13.8039
  28   2.0000      -0.500798       -13.6274
  29   2.0000      -0.493945       -13.4409
  30   2.0000      -0.480015       -13.0619
  31   2.0000      -0.462713       -12.5911
  32   2.0000      -0.455306       -12.3895
  33   2.0000      -0.436572       -11.8797
  34   2.0000      -0.425374       -11.5750
  35   2.0000      -0.417327       -11.3560
  36   2.0000      -0.403012       -10.9665
  37   2.0000      -0.394729       -10.7411
  38   2.0000      -0.381838       -10.3903
  39   2.0000      -0.372974       -10.1491
  40   2.0000      -0.362547        -9.8654
  41   2.0000      -0.361215        -9.8292
  42   2.0000      -0.350580        -9.5398
  43   2.0000      -0.332730        -9.0540
  44   2.0000      -0.322573        -8.7776
  45   2.0000      -0.311488        -8.4760
  46   2.0000      -0.303981        -8.2717
  47   2.0000      -0.272030        -7.4023
  48   2.0000      -0.264086        -7.1862
  49   2.0000      -0.250392        -6.8135
  50   2.0000      -0.245272        -6.6742
  51   0.0000       0.057471         1.5639
  52   0.0000       0.074818         2.0359
  53   0.0000       0.083985         2.2854
  54   0.0000       0.098250         2.6735
  55   0.0000       0.101818         2.7706

MULLIKEN ATOMIC CHARGES
-----------------------
   0 C :    0.299271
   1 C :   -0.266059
   2 C :   -0.316239
   3 C :   -0.012747
   4 O :   -0.509979
   5 H :    0.167432
   6 H :    0.151894
   7 H :    0.158135
   8 H :    0.146248
   9 H :    0.145993
  10 H :    0.140821
  11 H :    0.150807
  12 C :    0.002500
  13 H :    0.145197
  14 H :    0.119933
  15 O :   -0.513775
  16 C :    0.059235
  17 C :    0.078986
  18 C :   -0.292145
  19 C :   -0.025867
  20 O :   -0.508697
  21 H :    0.174684
  22 O :   -0.602402
  23 H :    0.150029
  24 H :    0.164715
  25 H :    0.134897
  26 H :    0.145692
  27 H :    0.144308
  28 H :    0.367133
Sum of atomic charges:   -0.0000000

LOEWDIN ATOMIC CHARGES
----------------------
   0 C :    0.176952
   1 C :   -0.227073
   2 C :   -0.223394
   3 C :   -0.034336
   4 O :   -0.322137
   5 H :    0.114030
   6 H :    0.119427
   7 H :    0.123764
   8 H :    0.115913
   9 H :    0.106492
  10 H :    0.100293
  11 H :    0.106439
  12 C :   -0.043512
  13 H :    0.105434
  14 H :    0.087116
  15 O :   -0.312155
  16 C :    0.018868
  17 C :    0.036321
  18 C :   -0.240854
  19 C :   -0.038251
  20 O :   -0.319453
  21 H :    0.123453
  22 O :   -0.414037
  23 H :    0.114423
  24 H :    0.127387
  25 H :    0.108420
  26 H :    0.103604
  27 H :    0.102237
  28 H :    0.284629

  Mayer bond orders larger than 0.100000
B(  0-C ,  1-C ) :   0.9150 B(  0-C ,  4-O ) :   0.8967 B(  0-C ,  5-H ) :   0.9357
B(  0-C , 15-O ) :   0.8914 B(  1-C ,  2-C ) :   0.9557 B(  1-C ,  6-H ) :   0.9347
B(  1-C ,  7-H ) :   0.9365 B(  2-C ,  3-C ) :   0.9481 B(  2-C ,  8-H ) :   0.9446
B(  2-C ,  9-H ) :   0.9401 B(  3-C ,  4-O ) :   0.8433 B(  3-C , 10-H ) :   0.9334
B(  3-C , 11-H ) :   0.9393 B( 12-C , 13-H ) :   0.9086 B( 12-C , 14-H ) :   0.9017
B( 12-C , 15-O ) :   0.8414 B( 12-C , 16-C ) :   0.9034 B( 16-C , 17-C ) :   0.9022
B( 16-C , 20-O ) :   0.8645 B( 16-C , 21-H ) :   0.9216 B( 17-C , 18-C ) :   0.9090
B( 17-C , 22-O ) :   0.8947 B( 17-C , 23-H ) :   0.9337 B( 18-C , 19-C ) :   0.9393
B( 18-C , 24-H ) :   0.9371 B( 18-C , 25-H ) :   0.9354 B( 19-C , 20-O ) :   0.8536
B( 19-C , 26-H ) :   0.9344 B( 19-C , 27-H ) :   0.9382 B( 22-O , 28-H ) :   0.7926

FINAL SINGLE POINT ENERGY      -652.855867443948

DIPOLE MOMENT
-------------
                                X             Y             Z
Electronic contribution:     -4.30883      -5.47809      -1.32837
Nuclear contribution   :      5.26564       6.87767       1.50436
                        -----------------------------------------
Total Dipole Moment    :      0.95682       1.39958       0.17599
                        -----------------------------------------
Magnitude (a.u.)       :      1.70449
Magnitude (Debye)      :      4.33248

Rotational constants in cm-1:     0.055499     0.012869     0.012605
Rotational constants in MHz :  1663.804258   385.811159   377.899572

                             ****ORCA TERMINATED NORMALLY****
TOTAL RUN TIME: 0 days 0 hours 29 minutes 38 seconds 958 msec
