                         Program Version 4.2.0 -  RELEASE  -
|  1> # Test redundant internal optimization
|  2> #
|  3> ! RKS B3LYP  Opt TightSCF SmallPrint
|  4>
|  5> %basis
|  6>         Basis "6-31G"
|  7> end
|  8>
|  9> %geom
| 10> Constraints
| 11> { D 4  0  15  12  195.0   C } # D for Dihedral angle
| 12> { D 0  15  12  16  315.0   C } # D for Dihedral angle
| 13> { D 0  4  3  2   C } # D for Dihedral angle
| 14> { D 4  3  2  1   C } # D for Dihedral angle
| 15> { D 3  2  1  0   C } # D for Dihedral angle
| 16> { D 2  1  0  4   C } # D for Dihedral angle
| 17> { D 1  0  4  3   C } # D for Dihedral angle
| 18> { D 16  20  19  18   C } # D for Dihedral angle
| 19> { D 20  19  18  17   C } # D for Dihedral angle
| 20> { D 19  18  17  16   C } # D for Dihedral angle
| 21> { D 18  17  16  20   C } # D for Dihedral angle
| 22> { D 17  16  20  19   C } # D for Dihedral angle
| 23> { D 15  12  16  20   C } # D for Dihedral angle
| 24> end
| 25> end
| 26>
| 27>
| 28> #%pal
| 29> #nprocs 8
| 30> #end
| 31>
| 32> * xyz 0 1
| 33> C  -21.048   26.222   46.251
| 34> C  -20.361   27.558   45.944
| 35> C  -20.329   28.222   47.341
| 36> C  -20.110   27.022   48.296
| 37> O  -20.473   25.807   47.535
| 38> H  -20.833   25.428   45.533
| 39> H  -19.344   27.382   45.576
| 40> H  -20.898   28.157   45.201
| 41> H  -19.543   28.978   47.434
| 42> H  -21.289   28.710   47.548
| 43> H  -20.733   27.082   49.195
| 44> H  -19.064   26.913   48.597
| 45> C  -23.353   26.472   45.026
| 46> H  -23.419   25.468   44.589
| 47> H  -24.373   26.845   45.186
| 48> O  -22.586   26.394   46.375
| 49> C  -22.663   27.409   43.997
| 50> C  -21.289   26.868   43.585
| 51> C  -21.676   25.775   42.562
| 52> C  -22.921   26.374   41.860
| 53> O  -23.426   27.446   42.745
| 54> H  -22.648   28.427   44.392
| 55> O  -20.458   27.989   42.902
| 56> H  -20.710   26.476   44.428
| 57> H  -20.870   25.547   41.858
| 58> H  -21.936   24.846   43.084
| 59> H  -23.712   25.634   41.706
| 60> H  -22.677   26.837   40.900
| 61> H  -21.019   28.398   42.053
| 62> *
| 63>
| 64>                          ****END OF INPUT****
 Total Charge           Charge          ....    0
 Multiplicity           Mult            ....    1
 Number of Electrons    NEL             ....  102
FINAL SINGLE POINT ENERGY      -652.788677262951
FINAL SINGLE POINT ENERGY      -652.828018854068
FINAL SINGLE POINT ENERGY      -652.846332454777
FINAL SINGLE POINT ENERGY      -652.849132505360
FINAL SINGLE POINT ENERGY      -652.849589829608
FINAL SINGLE POINT ENERGY      -652.849673029106
                    ***********************HURRAY********************

CARTESIAN COORDINATES (ANGSTROEM)
---------------------------------
  C    -20.880867   26.216416   46.356834
  C    -20.077448   27.510228   46.207655
  C    -20.324471   28.207845   47.574755
  C    -20.385311   27.012634   48.549130
  O    -20.632196   25.815702   47.710662
  H    -20.581183   25.384483   45.710156
  H    -19.015214   27.263771   46.085389
  H    -20.378843   28.140641   45.371030
  H    -19.533478   28.918893   47.829342
  H    -21.280718   28.737343   47.550622
  H    -21.191873   27.094622   49.282306
  H    -19.438119   26.839258   49.069464
  C    -23.061674   26.586252   45.021991
  H    -23.261106   25.573703   44.637168
  H    -24.018536   27.007361   45.334978
  O    -22.311390   26.461108   46.265911
  C    -22.549613   27.433818   43.838012
  C    -21.253148   26.977589   43.143175
  C    -21.751431   25.770012   42.293144
  C    -23.176354   26.217423   41.875117
  O    -23.570466   27.306668   42.793257
  H    -22.493733   28.492826   44.106925
  O    -20.718303   28.047961   42.317424
  H    -20.439938   26.704192   43.807140
  H    -21.089413   25.598024   41.441470
  H    -21.778833   24.861027   42.903308
  H    -23.913006   25.411041   41.943885
  H    -23.203846   26.626867   40.860454
  H    -21.450490   28.468292   41.818298

 Multiplicity           Mult            ....    1
 Number of Electrons    NEL             ....  102
 Basis Dimension        Dim             ....  149

ORBITAL ENERGIES
----------------

  NO   OCC          E(Eh)            E(eV)
   0   2.0000     -19.154285      -521.2146
   1   2.0000     -19.147398      -521.0272
   2   2.0000     -19.139569      -520.8142
   3   2.0000     -19.138477      -520.7844
   4   2.0000     -10.283445      -279.8268
   5   2.0000     -10.249377      -278.8997
   6   2.0000     -10.244064      -278.7552
   7   2.0000     -10.239249      -278.6241
   8   2.0000     -10.233953      -278.4800
   9   2.0000     -10.223622      -278.1989
  10   2.0000     -10.197116      -277.4776
  11   2.0000     -10.186241      -277.1817
  12   2.0000     -10.185557      -277.1631
  13   2.0000      -1.053110       -28.6566
  14   2.0000      -1.047005       -28.4905
  15   2.0000      -1.016127       -27.6502
  16   2.0000      -0.990528       -26.9536
  17   2.0000      -0.786819       -21.4104
  18   2.0000      -0.784895       -21.3581
  19   2.0000      -0.772805       -21.0291
  20   2.0000      -0.738959       -20.1081
  21   2.0000      -0.679068       -18.4784
  22   2.0000      -0.614998       -16.7349
  23   2.0000      -0.606743       -16.5103
  24   2.0000      -0.597371       -16.2553
  25   2.0000      -0.580963       -15.8088
  26   2.0000      -0.530279       -14.4296
  27   2.0000      -0.518363       -14.1054
  28   2.0000      -0.504057       -13.7161
  29   2.0000      -0.483784       -13.1644
  30   2.0000      -0.480449       -13.0737
  31   2.0000      -0.461688       -12.5632
  32   2.0000      -0.449993       -12.2449
  33   2.0000      -0.440229       -11.9793
  34   2.0000      -0.428605       -11.6629
  35   2.0000      -0.420684       -11.4474
  36   2.0000      -0.406060       -11.0495
  37   2.0000      -0.400403       -10.8955
  38   2.0000      -0.380077       -10.3424
  39   2.0000      -0.378683       -10.3045
  40   2.0000      -0.365274        -9.9396
  41   2.0000      -0.357139        -9.7182
  42   2.0000      -0.350508        -9.5378
  43   2.0000      -0.339321        -9.2334
  44   2.0000      -0.317059        -8.6276
  45   2.0000      -0.312933        -8.5153
  46   2.0000      -0.300921        -8.1885
  47   2.0000      -0.280295        -7.6272
  48   2.0000      -0.263757        -7.1772
  49   2.0000      -0.257023        -6.9939
  50   2.0000      -0.243846        -6.6354
  51   0.0000       0.058768         1.5992
  52   0.0000       0.068100         1.8531
  53   0.0000       0.079428         2.1613
  54   0.0000       0.094098         2.5605
  55   0.0000       0.097922         2.6646

MULLIKEN ATOMIC CHARGES
-----------------------
   0 C :    0.296852
   1 C :   -0.284869
   2 C :   -0.302613
   3 C :    0.000110
   4 O :   -0.501726
   5 H :    0.136827
   6 H :    0.147386
   7 H :    0.165415
   8 H :    0.143262
   9 H :    0.160408
  10 H :    0.154790
  11 H :    0.142285
  12 C :    0.007094
  13 H :    0.126678
  14 H :    0.172249
  15 O :   -0.520273
  16 C :    0.026137
  17 C :    0.082215
  18 C :   -0.306606
  19 C :   -0.027977
  20 O :   -0.522896
  21 H :    0.162107
  22 O :   -0.605733
  23 H :    0.163617
  24 H :    0.167293
  25 H :    0.149586
  26 H :    0.153593
  27 H :    0.148352
  28 H :    0.366436
Sum of atomic charges:   -0.0000000

LOEWDIN ATOMIC CHARGES
----------------------
   0 C :    0.179801
   1 C :   -0.237093
   2 C :   -0.216228
   3 C :   -0.024915
   4 O :   -0.301778
   5 H :    0.093246
   6 H :    0.115575
   7 H :    0.121047
   8 H :    0.115187
   9 H :    0.117826
  10 H :    0.109479
  11 H :    0.102244
  12 C :   -0.040218
  13 H :    0.092756
  14 H :    0.126993
  15 O :   -0.338151
  16 C :    0.001583
  17 C :    0.027868
  18 C :   -0.241654
  19 C :   -0.038319
  20 O :   -0.323618
  21 H :    0.113669
  22 O :   -0.413545
  23 H :    0.118743
  24 H :    0.129022
  25 H :    0.115294
  26 H :    0.107145
  27 H :    0.103764
  28 H :    0.284275

  Mayer bond orders larger than 0.100000
B(  0-C ,  1-C ) :   0.9230 B(  0-C ,  4-O ) :   0.9362 B(  0-C ,  5-H ) :   0.9167
B(  0-C , 15-O ) :   0.8277 B(  1-C ,  2-C ) :   0.9462 B(  1-C ,  6-H ) :   0.9321
B(  1-C ,  7-H ) :   0.9238 B(  2-C ,  3-C ) :   0.9544 B(  2-C ,  8-H ) :   0.9443
B(  2-C ,  9-H ) :   0.9441 B(  3-C ,  4-O ) :   0.8319 B(  3-C , 10-H ) :   0.9350
B(  3-C , 11-H ) :   0.9395 B( 12-C , 13-H ) :   0.9218 B( 12-C , 14-H ) :   0.9311
B( 12-C , 15-O ) :   0.8556 B( 12-C , 16-C ) :   0.8734 B( 16-C , 17-C ) :   0.9045
B( 16-C , 20-O ) :   0.8267 B( 16-C , 21-H ) :   0.9227 B( 17-C , 18-C ) :   0.9097
B( 17-C , 22-O ) :   0.8846 B( 17-C , 23-H ) :   0.9171 B( 18-C , 19-C ) :   0.9421
B( 18-C , 24-H ) :   0.9369 B( 18-C , 25-H ) :   0.9329 B( 19-C , 20-O ) :   0.8352
B( 19-C , 26-H ) :   0.9343 B( 19-C , 27-H ) :   0.9379 B( 22-O , 28-H ) :   0.7937

FINAL SINGLE POINT ENERGY      -652.849679181789

DIPOLE MOMENT
-------------
                                X             Y             Z
Electronic contribution:     -2.08809      -0.56705      -0.00591
Nuclear contribution   :      2.32108       0.74093      -0.63715
                        -----------------------------------------
Total Dipole Moment    :      0.23300       0.17388      -0.64306
                        -----------------------------------------
Magnitude (a.u.)       :      0.70573
Magnitude (Debye)      :      1.79381

Rotational constants in cm-1:     0.055936     0.014269     0.013210
Rotational constants in MHz :  1676.919166   427.760033   396.039769

                             ****ORCA TERMINATED NORMALLY****
TOTAL RUN TIME: 0 days 0 hours 20 minutes 51 seconds 471 msec
