                         Program Version 4.2.0 -  RELEASE  -
|  1> # Test redundant internal optimization
|  2> #
|  3> ! RKS B3LYP  Opt TightSCF SmallPrint
|  4>
|  5> %basis
|  6>         Basis "6-31G"
|  7> end
|  8>
|  9> %geom
| 10> Constraints
| 11> { D 4  0  15  12  120.0   C } # D for Dihedral angle
| 12> { D 0  15  12  16  75.0   C } # D for Dihedral angle
| 13> { D 0  4  3  2   C } # D for Dihedral angle
| 14> { D 4  3  2  1   C } # D for Dihedral angle
| 15> { D 3  2  1  0   C } # D for Dihedral angle
| 16> { D 2  1  0  4   C } # D for Dihedral angle
| 17> { D 1  0  4  3   C } # D for Dihedral angle
| 18> { D 16  20  19  18   C } # D for Dihedral angle
| 19> { D 20  19  18  17   C } # D for Dihedral angle
| 20> { D 19  18  17  16   C } # D for Dihedral angle
| 21> { D 18  17  16  20   C } # D for Dihedral angle
| 22> { D 17  16  20  19   C } # D for Dihedral angle
| 23> { D 15  12  16  20   C } # D for Dihedral angle
| 24> end
| 25> end
| 26>
| 27>
| 28> #%pal
| 29> #nprocs 8
| 30> #end
| 31>
| 32> * xyz 0 1
| 33> C  -21.048   26.222   46.251
| 34> C  -20.361   27.558   45.944
| 35> C  -20.329   28.222   47.341
| 36> C  -20.110   27.022   48.296
| 37> O  -20.473   25.807   47.535
| 38> H  -20.833   25.428   45.533
| 39> H  -19.344   27.382   45.576
| 40> H  -20.898   28.157   45.201
| 41> H  -19.543   28.978   47.434
| 42> H  -21.289   28.710   47.548
| 43> H  -20.733   27.082   49.195
| 44> H  -19.064   26.913   48.597
| 45> C  -23.119   27.818   46.058
| 46> H  -24.145   27.912   46.434
| 47> H  -22.501   28.578   46.553
| 48> O  -22.586   26.394   46.375
| 49> C  -23.125   28.132   44.536
| 50> C  -23.546   29.581   44.268
| 51> C  -22.239   30.349   44.578
| 52> C  -21.136   29.376   44.092
| 53> O  -21.768   28.043   43.989
| 54> H  -23.729   27.383   44.019
| 55> O  -23.944   29.754   42.777
| 56> H  -24.388   29.906   44.890
| 57> H  -22.189   31.321   44.076
| 58> H  -22.152   30.525   45.657
| 59> H  -20.291   29.319   44.788
| 60> H  -20.760   29.633   43.098
| 61> H  -23.115   29.434   42.135
| 62> *
| 63>
| 64>                          ****END OF INPUT****
 Total Charge           Charge          ....    0
 Multiplicity           Mult            ....    1
 Number of Electrons    NEL             ....  102
FINAL SINGLE POINT ENERGY      -652.754346561733
FINAL SINGLE POINT ENERGY      -652.821789878803
FINAL SINGLE POINT ENERGY      -652.843086867663
FINAL SINGLE POINT ENERGY      -652.847978863039
FINAL SINGLE POINT ENERGY      -652.848732716649
FINAL SINGLE POINT ENERGY      -652.848874305118
FINAL SINGLE POINT ENERGY      -652.848895452756
FINAL SINGLE POINT ENERGY      -652.848899347565
FINAL SINGLE POINT ENERGY      -652.848899401317
                    ***********************HURRAY********************

CARTESIAN COORDINATES (ANGSTROEM)
---------------------------------
  C    -21.053954   26.196413   46.389946
  C    -19.984830   27.260370   46.128824
  C    -19.939100   28.014619   47.484795
  C    -20.193381   26.879488   48.506026
  O    -20.786226   25.764594   47.739977
  H    -20.972674   25.307656   45.764589
  H    -19.034147   26.742279   45.957226
  H    -20.210091   27.871922   45.260745
  H    -18.980388   28.515164   47.652428
  H    -20.726045   28.775964   47.538925
  H    -20.881030   27.168099   49.306445
  H    -19.266415   26.503560   48.949912
  C    -23.043710   27.859665   45.949126
  H    -24.093005   27.748060   46.240764
  H    -22.614231   28.671331   46.557919
  O    -22.455782   26.586050   46.300598
  C    -23.021338   28.249855   44.461073
  C    -23.689010   29.604279   44.173735
  C    -22.504303   30.587707   44.378875
  C    -21.287022   29.787170   43.856809
  O    -21.701097   28.356909   43.834517
  H    -23.530857   27.452706   43.908193
  O    -24.207478   29.660341   42.818088
  H    -24.542635   29.820259   44.817446
  H    -22.673665   31.514569   43.826190
  H    -22.393886   30.833392   45.440619
  H    -20.402978   29.893499   44.492849
  H    -21.013751   30.053182   42.831919
  H    -23.554971   29.259901   42.205439

 Multiplicity           Mult            ....    1
 Number of Electrons    NEL             ....  102
 Basis Dimension        Dim             ....  149

ORBITAL ENERGIES
----------------

  NO   OCC          E(Eh)            E(eV)
   0   2.0000     -19.158671      -521.3339
   1   2.0000     -19.146188      -520.9943
   2   2.0000     -19.132866      -520.6317
   3   2.0000     -19.131351      -520.5905
   4   2.0000     -10.273760      -279.5632
   5   2.0000     -10.251973      -278.9704
   6   2.0000     -10.243218      -278.7321
   7   2.0000     -10.241214      -278.6776
   8   2.0000     -10.240284      -278.6523
   9   2.0000     -10.222222      -278.1608
  10   2.0000     -10.199550      -277.5439
  11   2.0000     -10.189054      -277.2582
  12   2.0000     -10.178254      -276.9644
  13   2.0000      -1.049677       -28.5632
  14   2.0000      -1.041084       -28.3293
  15   2.0000      -1.016316       -27.6554
  16   2.0000      -0.986222       -26.8365
  17   2.0000      -0.794518       -21.6199
  18   2.0000      -0.782482       -21.2924
  19   2.0000      -0.776368       -21.1260
  20   2.0000      -0.733668       -19.9641
  21   2.0000      -0.682702       -18.5773
  22   2.0000      -0.614585       -16.7237
  23   2.0000      -0.608969       -16.5709
  24   2.0000      -0.598141       -16.2762
  25   2.0000      -0.569769       -15.5042
  26   2.0000      -0.530262       -14.4292
  27   2.0000      -0.517771       -14.0893
  28   2.0000      -0.502873       -13.6839
  29   2.0000      -0.483713       -13.1625
  30   2.0000      -0.480439       -13.0734
  31   2.0000      -0.462465       -12.5843
  32   2.0000      -0.452253       -12.3064
  33   2.0000      -0.442673       -12.0457
  34   2.0000      -0.431955       -11.7541
  35   2.0000      -0.415424       -11.3043
  36   2.0000      -0.410518       -11.1708
  37   2.0000      -0.398509       -10.8440
  38   2.0000      -0.382377       -10.4050
  39   2.0000      -0.375566       -10.2197
  40   2.0000      -0.366004        -9.9595
  41   2.0000      -0.357005        -9.7146
  42   2.0000      -0.349232        -9.5031
  43   2.0000      -0.340021        -9.2524
  44   2.0000      -0.319373        -8.6906
  45   2.0000      -0.307105        -8.3568
  46   2.0000      -0.284427        -7.7397
  47   2.0000      -0.281127        -7.6499
  48   2.0000      -0.271968        -7.4006
  49   2.0000      -0.253993        -6.9115
  50   2.0000      -0.238289        -6.4842
  51   0.0000       0.051065         1.3896
  52   0.0000       0.072473         1.9721
  53   0.0000       0.084915         2.3106
  54   0.0000       0.089665         2.4399
  55   0.0000       0.097239         2.6460

MULLIKEN ATOMIC CHARGES
-----------------------
   0 C :    0.322489
   1 C :   -0.311628
   2 C :   -0.317549
   3 C :    0.000748
   4 O :   -0.496090
   5 H :    0.160845
   6 H :    0.145943
   7 H :    0.192897
   8 H :    0.140057
   9 H :    0.140804
  10 H :    0.144447
  11 H :    0.142589
  12 C :    0.000639
  13 H :    0.161919
  14 H :    0.114537
  15 O :   -0.539031
  16 C :    0.067105
  17 C :    0.072858
  18 C :   -0.290290
  19 C :   -0.037942
  20 O :   -0.519098
  21 H :    0.169447
  22 O :   -0.598043
  23 H :    0.157219
  24 H :    0.167109
  25 H :    0.144929
  26 H :    0.143531
  27 H :    0.153341
  28 H :    0.366220
Sum of atomic charges:    0.0000000

LOEWDIN ATOMIC CHARGES
----------------------
   0 C :    0.190980
   1 C :   -0.239866
   2 C :   -0.223921
   3 C :   -0.030564
   4 O :   -0.313053
   5 H :    0.110062
   6 H :    0.118606
   7 H :    0.135867
   8 H :    0.113382
   9 H :    0.102984
  10 H :    0.103153
  11 H :    0.102426
  12 C :   -0.034472
  13 H :    0.122625
  14 H :    0.084248
  15 O :   -0.335469
  16 C :    0.002538
  17 C :    0.036193
  18 C :   -0.239183
  19 C :   -0.040868
  20 O :   -0.327041
  21 H :    0.118922
  22 O :   -0.410809
  23 H :    0.117860
  24 H :    0.129368
  25 H :    0.113622
  26 H :    0.101947
  27 H :    0.106329
  28 H :    0.284134

  Mayer bond orders larger than 0.100000
B(  0-C ,  1-C ) :   0.9348 B(  0-C ,  4-O ) :   0.9169 B(  0-C ,  5-H ) :   0.9321
B(  0-C , 15-O ) :   0.8463 B(  1-C ,  2-C ) :   0.9508 B(  1-C ,  6-H ) :   0.9347
B(  1-C ,  7-H ) :   0.8922 B(  2-C ,  3-C ) :   0.9490 B(  2-C ,  8-H ) :   0.9465
B(  2-C ,  9-H ) :   0.9413 B(  3-C ,  4-O ) :   0.8490 B(  3-C , 10-H ) :   0.9349
B(  3-C , 11-H ) :   0.9390 B( 12-C , 13-H ) :   0.9260 B( 12-C , 14-H ) :   0.9096
B( 12-C , 15-O ) :   0.8681 B( 12-C , 16-C ) :   0.8835 B( 16-C , 17-C ) :   0.8894
B( 16-C , 20-O ) :   0.8493 B( 16-C , 21-H ) :   0.9232 B( 17-C , 18-C ) :   0.9107
B( 17-C , 22-O ) :   0.8961 B( 17-C , 23-H ) :   0.9334 B( 18-C , 19-C ) :   0.9436
B( 18-C , 24-H ) :   0.9365 B( 18-C , 25-H ) :   0.9335 B( 19-C , 20-O ) :   0.8374
B( 19-C , 26-H ) :   0.9286 B( 19-C , 27-H ) :   0.9388 B( 22-O , 28-H ) :   0.7942

FINAL SINGLE POINT ENERGY      -652.848888175721

DIPOLE MOMENT
-------------
                                X             Y             Z
Electronic contribution:     -3.57869      -5.13408      -2.30869
Nuclear contribution   :      4.39534       6.69306       2.25500
                        -----------------------------------------
Total Dipole Moment    :      0.81665       1.55897      -0.05369
                        -----------------------------------------
Magnitude (a.u.)       :      1.76074
Magnitude (Debye)      :      4.47543

Rotational constants in cm-1:     0.058732     0.014487     0.013362
Rotational constants in MHz :  1760.743014   434.314435   400.570856

                             ****ORCA TERMINATED NORMALLY****
TOTAL RUN TIME: 0 days 1 hours 15 minutes 20 seconds 753 msec
