                         Program Version 4.2.0 -  RELEASE  -
|  1> # Test redundant internal optimization
|  2> #
|  3> ! RKS B3LYP  Opt TightSCF SmallPrint
|  4>
|  5> %basis
|  6>         Basis "6-31G"
|  7> end
|  8>
|  9> %geom
| 10> Constraints
| 11> { D 4  0  15  12  75.0   C } # D for Dihedral angle
| 12> { D 0  15  12  16  105.0   C } # D for Dihedral angle
| 13> { D 0  4  3  2   C } # D for Dihedral angle
| 14> { D 4  3  2  1   C } # D for Dihedral angle
| 15> { D 3  2  1  0   C } # D for Dihedral angle
| 16> { D 2  1  0  4   C } # D for Dihedral angle
| 17> { D 1  0  4  3   C } # D for Dihedral angle
| 18> { D 16  20  19  18   C } # D for Dihedral angle
| 19> { D 20  19  18  17   C } # D for Dihedral angle
| 20> { D 19  18  17  16   C } # D for Dihedral angle
| 21> { D 18  17  16  20   C } # D for Dihedral angle
| 22> { D 17  16  20  19   C } # D for Dihedral angle
| 23> { D 15  12  16  20   C } # D for Dihedral angle
| 24> end
| 25> end
| 26>
| 27>
| 28> #%pal
| 29> #nprocs 8
| 30> #end
| 31>
| 32> * xyz 0 1
| 33> C  -21.048   26.222   46.251
| 34> C  -20.361   27.558   45.944
| 35> C  -20.329   28.222   47.341
| 36> C  -20.110   27.022   48.296
| 37> O  -20.473   25.807   47.535
| 38> H  -20.833   25.428   45.533
| 39> H  -19.344   27.382   45.576
| 40> H  -20.898   28.157   45.201
| 41> H  -19.543   28.978   47.434
| 42> H  -21.289   28.710   47.548
| 43> H  -20.733   27.082   49.195
| 44> H  -19.064   26.913   48.597
| 45> C  -23.049   27.675   47.122
| 46> H  -23.840   27.411   47.836
| 47> H  -22.215   28.116   47.682
| 48> O  -22.586   26.394   46.375
| 49> C  -23.602   28.764   46.161
| 50> C  -24.879   28.290   45.458
| 51> C  -25.942   28.505   46.561
| 52> C  -25.447   29.783   47.283
| 53> O  -24.024   29.948   46.917
| 54> H  -22.805   29.082   45.486
| 55> O  -25.175   29.190   44.228
| 56> H  -24.823   27.250   45.118
| 57> H  -26.954   28.618   46.159
| 58> H  -25.948   27.650   47.249
| 59> H  -25.531   29.709   48.372
| 60> H  -25.972   30.682   46.948
| 61> H  -25.236   30.239   44.544
| 62> *
| 63>
| 64>                          ****END OF INPUT****
 Total Charge           Charge          ....    0
 Multiplicity           Mult            ....    1
 Number of Electrons    NEL             ....  102
FINAL SINGLE POINT ENERGY      -652.792794134257
FINAL SINGLE POINT ENERGY      -652.833895495995
FINAL SINGLE POINT ENERGY      -652.853123452828
FINAL SINGLE POINT ENERGY      -652.856487533361
FINAL SINGLE POINT ENERGY      -652.856947125668
FINAL SINGLE POINT ENERGY      -652.857062894956
FINAL SINGLE POINT ENERGY      -652.857081083574
FINAL SINGLE POINT ENERGY      -652.857085954469
FINAL SINGLE POINT ENERGY      -652.857086202743
                    ***********************HURRAY********************

CARTESIAN COORDINATES (ANGSTROEM)
---------------------------------
  C    -21.220487   26.387525   46.393746
  C    -20.305403   27.532906   45.934200
  C    -19.910285   28.198135   47.287513
  C    -19.825296   26.980984   48.243986
  O    -20.568033   25.881676   47.580364
  H    -21.231392   25.553193   45.690415
  H    -19.426130   27.096585   45.449476
  H    -20.788388   28.216391   45.231547
  H    -18.953391   28.725810   47.222017
  H    -20.660095   28.925726   47.607582
  H    -20.269901   27.170375   49.225804
  H    -18.797410   26.632692   48.380068
  C    -23.183600   27.767052   47.280621
  H    -23.991784   27.361051   47.897995
  H    -22.461297   28.233535   47.953725
  O    -22.633846   26.630423   46.551136
  C    -23.729068   28.811016   46.305217
  C    -24.895281   28.332212   45.428775
  C    -26.092729   28.465844   46.402488
  C    -25.736955   29.722723   47.235512
  O    -24.278927   29.947579   47.054592
  H    -22.918760   29.204900   45.683925
  O    -25.046663   29.185841   44.260712
  H    -24.750928   27.323690   45.044277
  H    -27.028648   28.573254   45.848852
  H    -26.169577   27.575577   47.035645
  H    -25.947521   29.603303   48.302436
  H    -26.246712   30.622871   46.877718
  H    -24.984494   30.124131   44.539655

 Multiplicity           Mult            ....    1
 Number of Electrons    NEL             ....  102
 Basis Dimension        Dim             ....  149

ORBITAL ENERGIES
----------------

  NO   OCC          E(Eh)            E(eV)
   0   2.0000     -19.148084      -521.0459
   1   2.0000     -19.146709      -521.0084
   2   2.0000     -19.141798      -520.8748
   3   2.0000     -19.136925      -520.7422
   4   2.0000     -10.280292      -279.7410
   5   2.0000     -10.237527      -278.5773
   6   2.0000     -10.235104      -278.5113
   7   2.0000     -10.234457      -278.4937
   8   2.0000     -10.233120      -278.4573
   9   2.0000     -10.230462      -278.3850
  10   2.0000     -10.195000      -277.4201
  11   2.0000     -10.193618      -277.3825
  12   2.0000     -10.189195      -277.2621
  13   2.0000      -1.052480       -28.6394
  14   2.0000      -1.038043       -28.2466
  15   2.0000      -1.006469       -27.3874
  16   2.0000      -0.997782       -27.1510
  17   2.0000      -0.790138       -21.5007
  18   2.0000      -0.783668       -21.3247
  19   2.0000      -0.772271       -21.0145
  20   2.0000      -0.735281       -20.0080
  21   2.0000      -0.680948       -18.5295
  22   2.0000      -0.607626       -16.5343
  23   2.0000      -0.604914       -16.4605
  24   2.0000      -0.601944       -16.3797
  25   2.0000      -0.575486       -15.6598
  26   2.0000      -0.529708       -14.4141
  27   2.0000      -0.510131       -13.8814
  28   2.0000      -0.502816       -13.6823
  29   2.0000      -0.493836       -13.4380
  30   2.0000      -0.473167       -12.8755
  31   2.0000      -0.460995       -12.5443
  32   2.0000      -0.446519       -12.1504
  33   2.0000      -0.440377       -11.9833
  34   2.0000      -0.430036       -11.7019
  35   2.0000      -0.416128       -11.3234
  36   2.0000      -0.412294       -11.2191
  37   2.0000      -0.394830       -10.7439
  38   2.0000      -0.384829       -10.4717
  39   2.0000      -0.370268       -10.0755
  40   2.0000      -0.364601        -9.9213
  41   2.0000      -0.359889        -9.7931
  42   2.0000      -0.348426        -9.4811
  43   2.0000      -0.332815        -9.0564
  44   2.0000      -0.316275        -8.6063
  45   2.0000      -0.313203        -8.5227
  46   2.0000      -0.300405        -8.1744
  47   2.0000      -0.280559        -7.6344
  48   2.0000      -0.266411        -7.2494
  49   2.0000      -0.259137        -7.0515
  50   2.0000      -0.242636        -6.6025
  51   0.0000       0.062723         1.7068
  52   0.0000       0.065534         1.7833
  53   0.0000       0.085656         2.3308
  54   0.0000       0.096664         2.6304
  55   0.0000       0.100230         2.7274

MULLIKEN ATOMIC CHARGES
-----------------------
   0 C :    0.303125
   1 C :   -0.284805
   2 C :   -0.322596
   3 C :   -0.011666
   4 O :   -0.500942
   5 H :    0.168131
   6 H :    0.158652
   7 H :    0.152735
   8 H :    0.147538
   9 H :    0.158095
  10 H :    0.146387
  11 H :    0.148999
  12 C :   -0.022461
  13 H :    0.150249
  14 H :    0.146031
  15 O :   -0.523339
  16 C :    0.056885
  17 C :    0.094109
  18 C :   -0.300166
  19 C :   -0.034197
  20 O :   -0.529075
  21 H :    0.155904
  22 O :   -0.604271
  23 H :    0.176156
  24 H :    0.162612
  25 H :    0.150833
  26 H :    0.149397
  27 H :    0.146637
  28 H :    0.361043
Sum of atomic charges:    0.0000000

LOEWDIN ATOMIC CHARGES
----------------------
   0 C :    0.175289
   1 C :   -0.230211
   2 C :   -0.225373
   3 C :   -0.034183
   4 O :   -0.319666
   5 H :    0.114081
   6 H :    0.123724
   7 H :    0.118104
   8 H :    0.116832
   9 H :    0.111788
  10 H :    0.103355
  11 H :    0.105655
  12 C :   -0.041873
  13 H :    0.108958
  14 H :    0.106058
  15 O :   -0.320755
  16 C :    0.007977
  17 C :    0.038808
  18 C :   -0.240837
  19 C :   -0.038675
  20 O :   -0.333864
  21 H :    0.109634
  22 O :   -0.415019
  23 H :    0.128086
  24 H :    0.127165
  25 H :    0.116547
  26 H :    0.105242
  27 H :    0.102613
  28 H :    0.280541

  Mayer bond orders larger than 0.100000
B(  0-C ,  1-C ) :   0.9183 B(  0-C ,  4-O ) :   0.9068 B(  0-C ,  5-H ) :   0.9358
B(  0-C , 15-O ) :   0.8959 B(  1-C ,  2-C ) :   0.9538 B(  1-C ,  6-H ) :   0.9342
B(  1-C ,  7-H ) :   0.9318 B(  2-C ,  3-C ) :   0.9454 B(  2-C ,  8-H ) :   0.9446
B(  2-C ,  9-H ) :   0.9375 B(  3-C ,  4-O ) :   0.8469 B(  3-C , 10-H ) :   0.9336
B(  3-C , 11-H ) :   0.9385 B( 12-C , 13-H ) :   0.9370 B( 12-C , 14-H ) :   0.9111
B( 12-C , 15-O ) :   0.8296 B( 12-C , 16-C ) :   0.8814 B( 16-C , 17-C ) :   0.9128
B( 16-C , 20-O ) :   0.8417 B( 16-C , 21-H ) :   0.9244 B( 17-C , 18-C ) :   0.9128
B( 17-C , 22-O ) :   0.8869 B( 17-C , 23-H ) :   0.9239 B( 18-C , 19-C ) :   0.9423
B( 18-C , 24-H ) :   0.9378 B( 18-C , 25-H ) :   0.9337 B( 19-C , 20-O ) :   0.8410
B( 19-C , 26-H ) :   0.9350 B( 19-C , 27-H ) :   0.9381 B( 22-O , 28-H ) :   0.7973

FINAL SINGLE POINT ENERGY      -652.857076427445

DIPOLE MOMENT
-------------
                                X             Y             Z
Electronic contribution:     -1.32816      -2.00131      -1.71521
Nuclear contribution   :      1.54027       2.78165       2.18782
                        -----------------------------------------
Total Dipole Moment    :      0.21211       0.78034       0.47261
                        -----------------------------------------
Magnitude (a.u.)       :      0.93663
Magnitude (Debye)      :      2.38072

Rotational constants in cm-1:     0.055845     0.013247     0.012854
Rotational constants in MHz :  1674.185146   397.145622   385.338643

                             ****ORCA TERMINATED NORMALLY****
TOTAL RUN TIME: 0 days 0 hours 29 minutes 43 seconds 765 msec
