                         Program Version 4.2.0 -  RELEASE  -
|  1> # Test redundant internal optimization
|  2> #
|  3> ! RKS B3LYP  Opt TightSCF SmallPrint
|  4>
|  5> %basis
|  6>         Basis "6-31G"
|  7> end
|  8>
|  9> %geom
| 10> Constraints
| 11> { D 4  0  15  12  30.0   C } # D for Dihedral angle
| 12> { D 0  15  12  16  210.0   C } # D for Dihedral angle
| 13> { D 0  4  3  2   C } # D for Dihedral angle
| 14> { D 4  3  2  1   C } # D for Dihedral angle
| 15> { D 3  2  1  0   C } # D for Dihedral angle
| 16> { D 2  1  0  4   C } # D for Dihedral angle
| 17> { D 1  0  4  3   C } # D for Dihedral angle
| 18> { D 16  20  19  18   C } # D for Dihedral angle
| 19> { D 20  19  18  17   C } # D for Dihedral angle
| 20> { D 19  18  17  16   C } # D for Dihedral angle
| 21> { D 18  17  16  20   C } # D for Dihedral angle
| 22> { D 17  16  20  19   C } # D for Dihedral angle
| 23> { D 15  12  16  20   C } # D for Dihedral angle
| 24> end
| 25> end
| 26>
| 27>
| 28> #%pal
| 29> #nprocs 8
| 30> #end
| 31>
| 32> * xyz 0 1
| 33> C  -21.048   26.222   46.251
| 34> C  -20.361   27.558   45.944
| 35> C  -20.329   28.222   47.341
| 36> C  -20.110   27.022   48.296
| 37> O  -20.473   25.807   47.535
| 38> H  -20.833   25.428   45.533
| 39> H  -19.344   27.382   45.576
| 40> H  -20.898   28.157   45.201
| 41> H  -19.543   28.978   47.434
| 42> H  -21.289   28.710   47.548
| 43> H  -20.733   27.082   49.195
| 44> H  -19.064   26.913   48.597
| 45> C  -23.091   26.824   47.779
| 46> H  -22.404   26.441   48.544
| 47> H  -23.118   27.918   47.860
| 48> O  -22.586   26.394   46.375
| 49> C  -24.517   26.292   48.093
| 50> C  -25.519   26.715   47.013
| 51> C  -25.219   25.693   45.890
| 52> C  -24.863   24.404   46.673
| 53> O  -24.538   24.827   48.053
| 54> H  -24.794   26.588   49.107
| 55> O  -26.971   26.541   47.536
| 56> H  -25.391   27.752   46.687
| 57> H  -26.064   25.548   45.210
| 58> H  -24.363   26.030   45.293
| 59> H  -24.003   23.877   46.247
| 60> H  -25.706   23.710   46.739
| 61> H  -27.123   25.508   47.867
| 62> *
| 63>
| 64>                          ****END OF INPUT****
 Total Charge           Charge          ....    0
 Multiplicity           Mult            ....    1
 Number of Electrons    NEL             ....  102
FINAL SINGLE POINT ENERGY      -652.829183049989
FINAL SINGLE POINT ENERGY      -652.852723133622
FINAL SINGLE POINT ENERGY      -652.858022048552
FINAL SINGLE POINT ENERGY      -652.860524944170
FINAL SINGLE POINT ENERGY      -652.860711707544
FINAL SINGLE POINT ENERGY      -652.860746693960
FINAL SINGLE POINT ENERGY      -652.860749044260
                    ***********************HURRAY********************

CARTESIAN COORDINATES (ANGSTROEM)
---------------------------------
  C    -21.134032   26.281778   46.424679
  C    -20.410049   27.560167   45.990346
  C    -20.166956   28.269437   47.349249
  C    -19.907593   27.087679   48.312249
  O    -20.443936   25.879907   47.625643
  H    -21.034176   25.458438   45.716018
  H    -19.459682   27.288887   45.517059
  H    -21.000966   28.153244   45.288751
  H    -19.321229   28.963097   47.315482
  H    -21.052867   28.839599   47.647596
  H    -20.405780   27.195690   49.279577
  H    -18.842246   26.903440   48.476318
  C    -23.148588   26.837539   47.839164
  H    -22.528053   26.443872   48.649241
  H    -23.202991   27.933551   47.917495
  O    -22.574589   26.436706   46.563908
  C    -24.550259   26.249170   47.999504
  C    -25.592005   26.648877   46.945468
  C    -25.300087   25.632164   45.809542
  C    -24.894356   24.353831   46.584178
  O    -24.541155   24.789038   47.956648
  H    -24.905746   26.534341   48.997596
  O    -26.940064   26.511466   47.479408
  H    -25.517348   27.688269   46.624746
  H    -26.184432   25.489245   45.182041
  H    -24.468570   25.993488   45.202497
  H    -24.027817   23.856414   46.141726
  H    -25.713783   23.632461   46.677728
  H    -27.025648   25.631205   47.903144

 Multiplicity           Mult            ....    1
 Number of Electrons    NEL             ....  102
 Basis Dimension        Dim             ....  149

ORBITAL ENERGIES
----------------

  NO   OCC          E(Eh)            E(eV)
   0   2.0000     -19.153088      -521.1820
   1   2.0000     -19.145614      -520.9786
   2   2.0000     -19.133046      -520.6366
   3   2.0000     -19.131383      -520.5914
   4   2.0000     -10.283729      -279.8345
   5   2.0000     -10.236320      -278.5444
   6   2.0000     -10.232227      -278.4331
   7   2.0000     -10.230860      -278.3959
   8   2.0000     -10.229949      -278.3711
   9   2.0000     -10.218397      -278.0567
  10   2.0000     -10.197328      -277.4834
  11   2.0000     -10.191401      -277.3221
  12   2.0000     -10.171974      -276.7935
  13   2.0000      -1.058924       -28.8148
  14   2.0000      -1.028823       -27.9957
  15   2.0000      -1.002035       -27.2668
  16   2.0000      -0.993406       -27.0320
  17   2.0000      -0.794443       -21.6179
  18   2.0000      -0.777437       -21.1551
  19   2.0000      -0.761556       -20.7230
  20   2.0000      -0.735674       -20.0187
  21   2.0000      -0.673286       -18.3211
  22   2.0000      -0.608913       -16.5694
  23   2.0000      -0.602492       -16.3946
  24   2.0000      -0.592755       -16.1297
  25   2.0000      -0.567648       -15.4465
  26   2.0000      -0.524657       -14.2766
  27   2.0000      -0.511355       -13.9147
  28   2.0000      -0.497836       -13.5468
  29   2.0000      -0.484938       -13.1958
  30   2.0000      -0.476107       -12.9555
  31   2.0000      -0.459031       -12.4909
  32   2.0000      -0.448675       -12.2091
  33   2.0000      -0.437740       -11.9115
  34   2.0000      -0.423247       -11.5171
  35   2.0000      -0.409837       -11.1522
  36   2.0000      -0.399364       -10.8672
  37   2.0000      -0.383085       -10.4243
  38   2.0000      -0.381378       -10.3778
  39   2.0000      -0.367542       -10.0013
  40   2.0000      -0.365389        -9.9427
  41   2.0000      -0.359005        -9.7690
  42   2.0000      -0.348674        -9.4879
  43   2.0000      -0.330696        -8.9987
  44   2.0000      -0.323321        -8.7980
  45   2.0000      -0.310256        -8.4425
  46   2.0000      -0.296274        -8.0620
  47   2.0000      -0.270418        -7.3585
  48   2.0000      -0.263304        -7.1649
  49   2.0000      -0.255160        -6.9433
  50   2.0000      -0.237364        -6.4590
  51   0.0000       0.068407         1.8614
  52   0.0000       0.077389         2.1059
  53   0.0000       0.090411         2.4602
  54   0.0000       0.102490         2.7889
  55   0.0000       0.108171         2.9435

MULLIKEN ATOMIC CHARGES
-----------------------
   0 C :    0.304320
   1 C :   -0.259946
   2 C :   -0.314343
   3 C :   -0.020056
   4 O :   -0.503946
   5 H :    0.162776
   6 H :    0.149292
   7 H :    0.154852
   8 H :    0.150100
   9 H :    0.151827
  10 H :    0.146734
  11 H :    0.153785
  12 C :   -0.006713
  13 H :    0.169288
  14 H :    0.120701
  15 O :   -0.537816
  16 C :    0.072945
  17 C :    0.079949
  18 C :   -0.287806
  19 C :   -0.020205
  20 O :   -0.523558
  21 H :    0.150238
  22 O :   -0.606384
  23 H :    0.146565
  24 H :    0.146479
  25 H :    0.173284
  26 H :    0.150676
  27 H :    0.134444
  28 H :    0.362517
Sum of atomic charges:   -0.0000000

LOEWDIN ATOMIC CHARGES
----------------------
   0 C :    0.181472
   1 C :   -0.225536
   2 C :   -0.222262
   3 C :   -0.034024
   4 O :   -0.313287
   5 H :    0.111183
   6 H :    0.117111
   7 H :    0.122236
   8 H :    0.118546
   9 H :    0.111287
  10 H :    0.102934
  11 H :    0.108326
  12 C :   -0.042839
  13 H :    0.117710
  14 H :    0.089665
  15 O :   -0.334403
  16 C :    0.015705
  17 C :    0.038998
  18 C :   -0.242291
  19 C :   -0.033194
  20 O :   -0.327129
  21 H :    0.113488
  22 O :   -0.419393
  23 H :    0.113769
  24 H :    0.117380
  25 H :    0.129809
  26 H :    0.107761
  27 H :    0.095236
  28 H :    0.281742

  Mayer bond orders larger than 0.100000
B(  0-C ,  1-C ) :   0.9194 B(  0-C ,  4-O ) :   0.9151 B(  0-C ,  5-H ) :   0.9350
B(  0-C , 15-O ) :   0.8578 B(  1-C ,  2-C ) :   0.9546 B(  1-C ,  6-H ) :   0.9344
B(  1-C ,  7-H ) :   0.9372 B(  2-C ,  3-C ) :   0.9490 B(  2-C ,  8-H ) :   0.9447
B(  2-C ,  9-H ) :   0.9430 B(  3-C ,  4-O ) :   0.8338 B(  3-C , 10-H ) :   0.9315
B(  3-C , 11-H ) :   0.9400 B( 12-C , 13-H ) :   0.9054 B( 12-C , 14-H ) :   0.9075
B( 12-C , 15-O ) :   0.8436 B( 12-C , 16-C ) :   0.8996 B( 16-C , 17-C ) :   0.9097
B( 16-C , 20-O ) :   0.8785 B( 16-C , 21-H ) :   0.9232 B( 17-C , 18-C ) :   0.9248
B( 17-C , 22-O ) :   0.8886 B( 17-C , 23-H ) :   0.9366 B( 18-C , 19-C ) :   0.9465
B( 18-C , 24-H ) :   0.9374 B( 18-C , 25-H ) :   0.9190 B( 19-C , 20-O ) :   0.8397
B( 19-C , 26-H ) :   0.9344 B( 19-C , 27-H ) :   0.9367 B( 22-O , 28-H ) :   0.7961

FINAL SINGLE POINT ENERGY      -652.860747077982

DIPOLE MOMENT
-------------
                                X             Y             Z
Electronic contribution:     -3.15143      -3.50126       1.51756
Nuclear contribution   :      4.17880       4.33204      -1.84243
                        -----------------------------------------
Total Dipole Moment    :      1.02737       0.83078      -0.32488
                        -----------------------------------------
Magnitude (a.u.)       :      1.36060
Magnitude (Debye)      :      3.45837

Rotational constants in cm-1:     0.060201     0.013566     0.013353
Rotational constants in MHz :  1804.783619   406.696631   400.325698

                             ****ORCA TERMINATED NORMALLY****
TOTAL RUN TIME: 0 days 0 hours 25 minutes 39 seconds 290 msec
