                         Program Version 4.2.1 -  RELEASE  -
|  1> # Test redundant internal optimization
|  2> #
|  3> ! RKS B3LYP  Opt TightSCF SmallPrint
|  4>
|  5> %basis
|  6>         Basis "6-31G"
|  7> end
|  8>
|  9> %geom
| 10> Constraints
| 11> { D 4  0  19  14  225.0   C } # D for Dihedral angle
| 12> { D 0  19  14  12  270.0   C } # D for Dihedral angle
| 13> { D 0  4  3  2   C } # D for Dihedral angle
| 14> { D 4  3  2  1   C } # D for Dihedral angle
| 15> { D 3  2  1  0   C } # D for Dihedral angle
| 16> { D 2  1  0  4   C } # D for Dihedral angle
| 17> { D 1  0  4  3   C } # D for Dihedral angle
| 18> { D 14  15  16  17   C } # D for Dihedral angle
| 19> { D 15  16  17  12   C } # D for Dihedral angle
| 20> { D 16  17  12  14   C } # D for Dihedral angle
| 21> { D 17  12  14  15   C } # D for Dihedral angle
| 22> { D 12  14  15  16   C } # D for Dihedral angle
| 23> end
| 24> end
| 25>
| 26>
| 27> #%pal
| 28> #nprocs 8
| 29> #end
| 30>
| 31> * xyz 0 1
| 32> C  -21.048   26.222   46.251
| 33> C  -20.361   27.558   45.944
| 34> C  -20.329   28.222   47.341
| 35> C  -20.110   27.022   48.296
| 36> O  -20.473   25.807   47.535
| 37> H  -20.833   25.428   45.533
| 38> H  -19.344   27.382   45.576
| 39> H  -20.898   28.157   45.201
| 40> H  -19.543   28.978   47.434
| 41> H  -21.289   28.710   47.548
| 42> H  -20.733   27.082   49.195
| 43> H  -19.064   26.913   48.597
| 44> C  -23.416   26.830   44.168
| 45> H  -24.214   26.523   43.474
| 46> C  -23.222   25.800   45.287
| 47> C  -22.392   24.710   44.570
| 48> C  -21.495   25.526   43.606
| 49> O  -22.122   26.860   43.477
| 50> H  -23.615   27.845   44.516
| 51> O  -22.472   26.381   46.366
| 52> H  -24.167   25.419   45.689
| 53> H  -21.810   24.095   45.263
| 54> H  -23.055   24.041   44.006
| 55> H  -21.417   25.068   42.614
| 56> H  -20.488   25.681   44.005
| 57> *
| 58>
| 59>                          ****END OF INPUT****
 Total Charge           Charge          ....    0
 Multiplicity           Mult            ....    1
 Number of Electrons    NEL             ....   86
FINAL SINGLE POINT ENERGY      -538.404262924660
FINAL SINGLE POINT ENERGY      -538.426516084221
FINAL SINGLE POINT ENERGY      -538.428438983097
FINAL SINGLE POINT ENERGY      -538.428769272758
FINAL SINGLE POINT ENERGY      -538.428806103240
FINAL SINGLE POINT ENERGY      -538.428816839793
FINAL SINGLE POINT ENERGY      -538.428817844788
                    ***********************HURRAY********************

CARTESIAN COORDINATES (ANGSTROEM)
---------------------------------
  C    -20.802687   26.287091   46.287988
  C    -20.212424   27.681856   46.087032
  C    -20.387342   28.306873   47.490567
  C    -20.164169   27.105979   48.435683
  O    -20.339686   25.893445   47.595387
  H    -20.450728   25.526370   45.592908
  H    -19.148941   27.591736   45.833492
  H    -20.716958   28.228198   45.287928
  H    -19.684278   29.123465   47.679228
  H    -21.405385   28.693778   47.596416
  H    -20.881141   27.067617   49.259981
  H    -19.147088   27.064404   48.837618
  C    -23.359483   26.819001   44.148767
  H    -24.293085   26.585905   43.615962
  C    -23.084849   25.791797   45.250240
  C    -22.510259   24.615859   44.438454
  C    -21.709754   25.308526   43.306560
  O    -22.207303   26.705269   43.241479
  H    -23.390336   27.842182   44.523621
  O    -22.252249   26.351956   46.308258
  H    -24.003572   25.507177   45.771642
  H    -21.907141   23.935370   45.046274
  H    -23.346097   24.040910   44.025883
  H    -21.871073   24.831784   42.333056
  H    -20.633974   25.353452   43.497575

 Multiplicity           Mult            ....    1
 Number of Electrons    NEL             ....   86
 Basis Dimension        Dim             ....  127

ORBITAL ENERGIES
----------------

  NO   OCC          E(Eh)            E(eV)
   0   2.0000     -19.139164      -520.8031
   1   2.0000     -19.136495      -520.7305
   2   2.0000     -19.132853      -520.6314
   3   2.0000     -10.274700      -279.5888
   4   2.0000     -10.243701      -278.7453
   5   2.0000     -10.230994      -278.3995
   6   2.0000     -10.224080      -278.2114
   7   2.0000     -10.218998      -278.0731
   8   2.0000     -10.195187      -277.4251
   9   2.0000     -10.179218      -276.9906
  10   2.0000     -10.176386      -276.9135
  11   2.0000      -1.047581       -28.5061
  12   2.0000      -1.018584       -27.7171
  13   2.0000      -0.986133       -26.8340
  14   2.0000      -0.789848       -21.4928
  15   2.0000      -0.775591       -21.1049
  16   2.0000      -0.748623       -20.3711
  17   2.0000      -0.718777       -19.5589
  18   2.0000      -0.616923       -16.7873
  19   2.0000      -0.607292       -16.5253
  20   2.0000      -0.592041       -16.1102
  21   2.0000      -0.565751       -15.3949
  22   2.0000      -0.524834       -14.2815
  23   2.0000      -0.505156       -13.7460
  24   2.0000      -0.482259       -13.1229
  25   2.0000      -0.477789       -13.0013
  26   2.0000      -0.453637       -12.3441
  27   2.0000      -0.436418       -11.8755
  28   2.0000      -0.432660       -11.7733
  29   2.0000      -0.417684       -11.3657
  30   2.0000      -0.401213       -10.9176
  31   2.0000      -0.393774       -10.7151
  32   2.0000      -0.374678       -10.1955
  33   2.0000      -0.369118       -10.0442
  34   2.0000      -0.360144        -9.8000
  35   2.0000      -0.350258        -9.5310
  36   2.0000      -0.343801        -9.3553
  37   2.0000      -0.316501        -8.6124
  38   2.0000      -0.306752        -8.3472
  39   2.0000      -0.296315        -8.0631
  40   2.0000      -0.260883        -7.0990
  41   2.0000      -0.253005        -6.8846
  42   2.0000      -0.234493        -6.3809
  43   0.0000       0.073506         2.0002
  44   0.0000       0.091460         2.4888
  45   0.0000       0.100729         2.7410
  46   0.0000       0.104550         2.8450
  47   0.0000       0.109693         2.9849

MULLIKEN ATOMIC CHARGES
-----------------------
   0 C :    0.292174
   1 C :   -0.255716
   2 C :   -0.299968
   3 C :   -0.001643
   4 O :   -0.507191
   5 H :    0.136377
   6 H :    0.138253
   7 H :    0.162720
   8 H :    0.138562
   9 H :    0.158558
  10 H :    0.150218
  11 H :    0.138495
  12 C :   -0.004712
  13 H :    0.125460
  14 C :    0.094074
  15 C :   -0.330297
  16 C :   -0.016197
  17 O :   -0.526445
  18 H :    0.163023
  19 O :   -0.524371
  20 H :    0.150168
  21 H :    0.168606
  22 H :    0.155158
  23 H :    0.142089
  24 H :    0.152605
Sum of atomic charges:    0.0000000

LOEWDIN ATOMIC CHARGES
----------------------
   0 C :    0.177892
   1 C :   -0.222845
   2 C :   -0.217206
   3 C :   -0.026722
   4 O :   -0.315865
   5 H :    0.097893
   6 H :    0.110831
   7 H :    0.124850
   8 H :    0.112676
   9 H :    0.117287
  10 H :    0.106774
  11 H :    0.100470
  12 C :   -0.047104
  13 H :    0.092845
  14 C :    0.045686
  15 C :   -0.240982
  16 C :   -0.037377
  17 O :   -0.337060
  18 H :    0.118986
  19 O :   -0.327452
  20 H :    0.113024
  21 H :    0.127499
  22 H :    0.122566
  23 H :    0.101333
  24 H :    0.102001

  Mayer bond orders larger than 0.100000
B(  0-C ,  1-C ) :   0.9364 B(  0-C ,  4-O ) :   0.9255 B(  0-C ,  5-H ) :   0.9102
B(  0-C , 19-O ) :   0.8351 B(  1-C ,  2-C ) :   0.9544 B(  1-C ,  6-H ) :   0.9370
B(  1-C ,  7-H ) :   0.9310 B(  2-C ,  3-C ) :   0.9536 B(  2-C ,  8-H ) :   0.9455
B(  2-C ,  9-H ) :   0.9443 B(  3-C ,  4-O ) :   0.8389 B(  3-C , 10-H ) :   0.9352
B(  3-C , 11-H ) :   0.9400 B( 12-C , 13-H ) :   0.9139 B( 12-C , 14-C ) :   0.9089
B( 12-C , 17-O ) :   0.8572 B( 12-C , 18-H ) :   0.9327 B( 14-C , 15-C ) :   0.9362
B( 14-C , 19-O ) :   0.8735 B( 14-C , 20-H ) :   0.9335 B( 15-C , 16-C ) :   0.9399
B( 15-C , 21-H ) :   0.9310 B( 15-C , 22-H ) :   0.9367 B( 16-C , 17-O ) :   0.8552
B( 16-C , 23-H ) :   0.9326 B( 16-C , 24-H ) :   0.9276

FINAL SINGLE POINT ENERGY      -538.428817507801

DIPOLE MOMENT
-------------
                                X             Y             Z
Electronic contribution:     -0.91116      -1.23304       0.46360
Nuclear contribution   :      0.72819       1.14225      -0.67210
                        -----------------------------------------
Total Dipole Moment    :     -0.18298      -0.09079      -0.20851
                        -----------------------------------------
Magnitude (a.u.)       :      0.29189
Magnitude (Debye)      :      0.74192

Rotational constants in cm-1:     0.077273     0.022932     0.021722
Rotational constants in MHz :  2316.591191   687.477885   651.198318

                             ****ORCA TERMINATED NORMALLY****
TOTAL RUN TIME: 0 days 0 hours 9 minutes 57 seconds 652 msec
