                         Program Version 4.2.0 -  RELEASE  -
|  1> # Test redundant internal optimization
|  2> #
|  3> ! RKS B3LYP  Opt TightSCF SmallPrint
|  4>
|  5> %basis
|  6>         Basis "6-31G"
|  7> end
|  8>
|  9> %geom
| 10> Constraints
| 11> { D 4  0  15  12  60.0   C } # D for Dihedral angle
| 12> { D 0  15  12  16  225.0   C } # D for Dihedral angle
| 13> { D 0  4  3  2   C } # D for Dihedral angle
| 14> { D 4  3  2  1   C } # D for Dihedral angle
| 15> { D 3  2  1  0   C } # D for Dihedral angle
| 16> { D 2  1  0  4   C } # D for Dihedral angle
| 17> { D 1  0  4  3   C } # D for Dihedral angle
| 18> { D 16  20  19  18   C } # D for Dihedral angle
| 19> { D 20  19  18  17   C } # D for Dihedral angle
| 20> { D 19  18  17  16   C } # D for Dihedral angle
| 21> { D 18  17  16  20   C } # D for Dihedral angle
| 22> { D 17  16  20  19   C } # D for Dihedral angle
| 23> { D 15  12  16  20   C } # D for Dihedral angle
| 24> end
| 25> end
| 26>
| 27>
| 28> #%pal
| 29> #nprocs 8
| 30> #end
| 31>
| 32> * xyz 0 1
| 33> C  -21.048   26.222   46.251
| 34> C  -20.361   27.558   45.944
| 35> C  -20.329   28.222   47.341
| 36> C  -20.110   27.022   48.296
| 37> O  -20.473   25.807   47.535
| 38> H  -20.833   25.428   45.533
| 39> H  -19.344   27.382   45.576
| 40> H  -20.898   28.157   45.201
| 41> H  -19.543   28.978   47.434
| 42> H  -21.289   28.710   47.548
| 43> H  -20.733   27.082   49.195
| 44> H  -19.064   26.913   48.597
| 45> C  -23.051   27.452   47.413
| 46> H  -22.208   27.713   48.066
| 47> H  -23.388   28.365   46.907
| 48> O  -22.586   26.394   46.375
| 49> C  -24.219   26.946   48.304
| 50> C  -23.781   25.767   49.180
| 51> C  -23.021   26.488   50.319
| 52> C  -23.819   27.804   50.496
| 53> O  -24.617   27.981   49.264
| 54> H  -25.087   26.743   47.674
| 55> H  -24.660   25.244   49.574
| 56> O  -22.897   24.739   48.423
| 57> H  -22.978   25.899   51.240
| 58> H  -21.991   26.700   50.008
| 59> H  -23.169   28.675   50.631
| 60> H  -24.523   27.756   51.332
| 61> H  -22.011   25.241   48.020
| 62> *
| 63>
| 64>                          ****END OF INPUT****
 Total Charge           Charge          ....    0
 Multiplicity           Mult            ....    1
 Number of Electrons    NEL             ....  102
FINAL SINGLE POINT ENERGY      -652.798970575672
FINAL SINGLE POINT ENERGY      -652.836131402101
FINAL SINGLE POINT ENERGY      -652.855687155862
FINAL SINGLE POINT ENERGY      -652.859174783711
FINAL SINGLE POINT ENERGY      -652.859811942356
FINAL SINGLE POINT ENERGY      -652.860040051053
FINAL SINGLE POINT ENERGY      -652.860110628705
FINAL SINGLE POINT ENERGY      -652.860118442485
FINAL SINGLE POINT ENERGY      -652.860102846284
                    ***********************HURRAY********************

CARTESIAN COORDINATES (ANGSTROEM)
---------------------------------
  C    -21.157542   26.391108   46.353541
  C    -20.307033   27.557178   45.821574
  C    -19.933328   28.306906   47.134317
  C    -19.773590   27.149766   48.156491
  O    -20.465138   25.973737   47.564805
  H    -21.141603   25.526333   45.688599
  H    -19.414934   27.147363   45.337607
  H    -20.850735   28.175565   45.103394
  H    -19.007097   28.881225   47.034802
  H    -20.722716   29.004210   47.426101
  H    -20.216010   27.369633   49.133017
  H    -18.728660   26.860933   48.297388
  C    -23.104763   27.555729   47.507686
  H    -22.340948   27.910450   48.205460
  H    -23.502753   28.417392   46.961568
  O    -22.556669   26.587211   46.558145
  C    -24.232816   26.877687   48.294103
  C    -23.823127   25.687750   49.188462
  C    -23.205467   26.415885   50.431139
  C    -24.083223   27.679229   50.548209
  O    -24.769420   27.857524   49.238865
  H    -25.042563   26.607225   47.612577
  H    -24.741092   25.177706   49.495094
  O    -22.994901   24.654860   48.642305
  H    -23.238937   25.786096   51.323750
  H    -22.155792   26.657218   50.226659
  H    -23.511960   28.586871   50.770945
  H    -24.869713   27.569449   51.300809
  H    -22.138471   25.015759   48.319589

 Multiplicity           Mult            ....    1
 Number of Electrons    NEL             ....  102
 Basis Dimension        Dim             ....  149

ORBITAL ENERGIES
----------------

  NO   OCC          E(Eh)            E(eV)
   0   2.0000     -19.165651      -521.5239
   1   2.0000     -19.152364      -521.1623
   2   2.0000     -19.137944      -520.7699
   3   2.0000     -19.113225      -520.0973
   4   2.0000     -10.292120      -280.0628
   5   2.0000     -10.246746      -278.8281
   6   2.0000     -10.234888      -278.5055
   7   2.0000     -10.228953      -278.3440
   8   2.0000     -10.226732      -278.2835
   9   2.0000     -10.226659      -278.2815
  10   2.0000     -10.205712      -277.7115
  11   2.0000     -10.201835      -277.6060
  12   2.0000     -10.182535      -277.0809
  13   2.0000      -1.069573       -29.1046
  14   2.0000      -1.023182       -27.8422
  15   2.0000      -1.007733       -27.4218
  16   2.0000      -0.993126       -27.0243
  17   2.0000      -0.801811       -21.8184
  18   2.0000      -0.778281       -21.1781
  19   2.0000      -0.767375       -20.8813
  20   2.0000      -0.737460       -20.0673
  21   2.0000      -0.682971       -18.5846
  22   2.0000      -0.618212       -16.8224
  23   2.0000      -0.605787       -16.4843
  24   2.0000      -0.596353       -16.2276
  25   2.0000      -0.573589       -15.6082
  26   2.0000      -0.528732       -14.3875
  27   2.0000      -0.517105       -14.0711
  28   2.0000      -0.511906       -13.9297
  29   2.0000      -0.487168       -13.2565
  30   2.0000      -0.480729       -13.0813
  31   2.0000      -0.462226       -12.5778
  32   2.0000      -0.442265       -12.0346
  33   2.0000      -0.433767       -11.8034
  34   2.0000      -0.426433       -11.6038
  35   2.0000      -0.422987       -11.5100
  36   2.0000      -0.407167       -11.0796
  37   2.0000      -0.397983       -10.8297
  38   2.0000      -0.390719       -10.6320
  39   2.0000      -0.374531       -10.1915
  40   2.0000      -0.365746        -9.9525
  41   2.0000      -0.361690        -9.8421
  42   2.0000      -0.346311        -9.4236
  43   2.0000      -0.340095        -9.2544
  44   2.0000      -0.327727        -8.9179
  45   2.0000      -0.314019        -8.5449
  46   2.0000      -0.296371        -8.0647
  47   2.0000      -0.278273        -7.5722
  48   2.0000      -0.267415        -7.2767
  49   2.0000      -0.251147        -6.8341
  50   2.0000      -0.231500        -6.2994
  51   0.0000       0.050322         1.3693
  52   0.0000       0.071008         1.9322
  53   0.0000       0.087402         2.3783
  54   0.0000       0.094728         2.5777
  55   0.0000       0.098319         2.6754

MULLIKEN ATOMIC CHARGES
-----------------------
   0 C :    0.289044
   1 C :   -0.267898
   2 C :   -0.320382
   3 C :   -0.022175
   4 O :   -0.524926
   5 H :    0.179993
   6 H :    0.158544
   7 H :    0.159761
   8 H :    0.152830
   9 H :    0.159116
  10 H :    0.147338
  11 H :    0.159109
  12 C :   -0.031040
  13 H :    0.128092
  14 H :    0.157989
  15 O :   -0.519368
  16 C :    0.087051
  17 C :    0.108764
  18 C :   -0.333835
  19 C :   -0.009901
  20 O :   -0.524907
  21 H :    0.162771
  22 H :    0.156948
  23 O :   -0.622329
  24 H :    0.155199
  25 H :    0.142717
  26 H :    0.131357
  27 H :    0.150032
  28 H :    0.390107
Sum of atomic charges:   -0.0000000

LOEWDIN ATOMIC CHARGES
----------------------
   0 C :    0.172096
   1 C :   -0.224714
   2 C :   -0.224145
   3 C :   -0.035884
   4 O :   -0.329043
   5 H :    0.119304
   6 H :    0.123413
   7 H :    0.125032
   8 H :    0.119722
   9 H :    0.114074
  10 H :    0.100078
  11 H :    0.110965
  12 C :   -0.046468
  13 H :    0.094666
  14 H :    0.111642
  15 O :   -0.316028
  16 C :    0.021474
  17 C :    0.042294
  18 C :   -0.246170
  19 C :   -0.032669
  20 O :   -0.326251
  21 H :    0.117839
  22 H :    0.113197
  23 O :   -0.415320
  24 H :    0.122605
  25 H :    0.104370
  26 H :    0.096550
  27 H :    0.106412
  28 H :    0.280962

  Mayer bond orders larger than 0.100000
B(  0-C ,  1-C ) :   0.9200 B(  0-C ,  4-O ) :   0.8489 B(  0-C ,  5-H ) :   0.9312
B(  0-C , 15-O ) :   0.9202 B(  1-C ,  2-C ) :   0.9523 B(  1-C ,  6-H ) :   0.9336
B(  1-C ,  7-H ) :   0.9374 B(  2-C ,  3-C ) :   0.9464 B(  2-C ,  8-H ) :   0.9439
B(  2-C ,  9-H ) :   0.9395 B(  3-C ,  4-O ) :   0.8297 B(  3-C , 10-H ) :   0.9236
B(  3-C , 11-H ) :   0.9382 B( 12-C , 13-H ) :   0.9140 B( 12-C , 14-H ) :   0.9297
B( 12-C , 15-O ) :   0.8081 B( 12-C , 16-C ) :   0.9013 B( 16-C , 17-C ) :   0.8857
B( 16-C , 20-O ) :   0.8445 B( 16-C , 21-H ) :   0.9305 B( 17-C , 18-C ) :   0.9062
B( 17-C , 22-H ) :   0.9338 B( 17-C , 23-O ) :   0.9592 B( 18-C , 19-C ) :   0.9372
B( 18-C , 24-H ) :   0.9438 B( 18-C , 25-H ) :   0.9368 B( 19-C , 20-O ) :   0.8370
B( 19-C , 26-H ) :   0.9350 B( 19-C , 27-H ) :   0.9389 B( 23-O , 28-H ) :   0.7287

FINAL SINGLE POINT ENERGY      -652.860099311095

DIPOLE MOMENT
-------------
                                X             Y             Z
Electronic contribution:     -3.98966      -4.06644      -2.17866
Nuclear contribution   :      5.40885       5.41776       2.24772
                        -----------------------------------------
Total Dipole Moment    :      1.41919       1.35132       0.06906
                        -----------------------------------------
Magnitude (a.u.)       :      1.96085
Magnitude (Debye)      :      4.98409

Rotational constants in cm-1:     0.045196     0.017534     0.017109
Rotational constants in MHz :  1354.928979   525.657576   512.906793

                             ****ORCA TERMINATED NORMALLY****
TOTAL RUN TIME: 0 days 0 hours 36 minutes 0 seconds 275 msec
