                         Program Version 4.2.1 -  RELEASE  -
|  1> # Test redundant internal optimization
|  2> #
|  3> ! RKS B3LYP  Opt TightSCF SmallPrint
|  4>
|  5> %basis
|  6>         Basis "6-31G"
|  7> end
|  8>
|  9> %geom
| 10> Constraints
| 11> { D 4  0  19  14  240.0   C } # D for Dihedral angle
| 12> { D 0  19  14  12  75.0   C } # D for Dihedral angle
| 13> { D 0  4  3  2   C } # D for Dihedral angle
| 14> { D 4  3  2  1   C } # D for Dihedral angle
| 15> { D 3  2  1  0   C } # D for Dihedral angle
| 16> { D 2  1  0  4   C } # D for Dihedral angle
| 17> { D 1  0  4  3   C } # D for Dihedral angle
| 18> { D 14  15  16  17   C } # D for Dihedral angle
| 19> { D 15  16  17  12   C } # D for Dihedral angle
| 20> { D 16  17  12  14   C } # D for Dihedral angle
| 21> { D 17  12  14  15   C } # D for Dihedral angle
| 22> { D 12  14  15  16   C } # D for Dihedral angle
| 23> end
| 24> end
| 25>
| 26>
| 27> #%pal
| 28> #nprocs 8
| 29> #end
| 30>
| 31> * xyz 0 1
| 32> C  -21.048   26.222   46.251
| 33> C  -20.361   27.558   45.944
| 34> C  -20.329   28.222   47.341
| 35> C  -20.110   27.022   48.296
| 36> O  -20.473   25.807   47.535
| 37> H  -20.833   25.428   45.533
| 38> H  -19.344   27.382   45.576
| 39> H  -20.898   28.157   45.201
| 40> H  -19.543   28.978   47.434
| 41> H  -21.289   28.710   47.548
| 42> H  -20.733   27.082   49.195
| 43> H  -19.064   26.913   48.597
| 44> C  -23.229   24.092   46.028
| 45> H  -23.546   23.377   45.254
| 46> C  -23.235   25.530   45.496
| 47> C  -24.739   25.884   45.566
| 48> C  -25.217   25.139   46.837
| 49> O  -24.194   24.112   47.133
| 50> H  -22.274   23.768   46.445
| 51> O  -22.472   26.381   46.366
| 52> H  -22.825   25.615   44.483
| 53> H  -24.920   26.962   45.621
| 54> H  -25.258   25.503   44.677
| 55> H  -26.187   24.649   46.698
| 56> H  -25.275   25.797   47.710
| 57> *
| 58>
| 59>                          ****END OF INPUT****
 Total Charge           Charge          ....    0
 Multiplicity           Mult            ....    1
 Number of Electrons    NEL             ....   86
FINAL SINGLE POINT ENERGY      -538.429973715995
FINAL SINGLE POINT ENERGY      -538.432249695389
FINAL SINGLE POINT ENERGY      -538.432559035451
FINAL SINGLE POINT ENERGY      -538.432593403103
FINAL SINGLE POINT ENERGY      -538.432604803163
                    ***********************HURRAY********************

CARTESIAN COORDINATES (ANGSTROEM)
---------------------------------
  C    -20.978651   26.189932   46.240957
  C    -20.360195   27.557288   45.951135
  C    -20.410183   28.232721   47.342988
  C    -20.155886   27.052573   48.307280
  O    -20.432269   25.823129   47.522866
  H    -20.712204   25.395434   45.538024
  H    -19.323190   27.426963   45.618823
  H    -20.911446   28.106782   45.184625
  H    -19.668980   29.029955   47.452424
  H    -21.405245   28.656423   47.508220
  H    -20.810697   27.063430   49.181839
  H    -19.113777   26.987926   48.634525
  C    -23.281128   24.032446   45.976947
  H    -23.670151   23.362938   45.193839
  C    -23.218798   25.469869   45.462833
  C    -24.686046   25.914767   45.603430
  C    -25.158129   25.186599   46.885486
  O    -24.190126   24.095496   47.120992
  H    -22.327594   23.648781   46.345068
  O    -22.420771   26.339574   46.317759
  H    -22.857963   25.532237   44.426279
  H    -24.757757   27.002578   45.677133
  H    -25.252773   25.583152   44.726094
  H    -26.162927   24.762505   46.781083
  H    -25.129114   25.836503   47.764353

 Multiplicity           Mult            ....    1
 Number of Electrons    NEL             ....   86
 Basis Dimension        Dim             ....  127

ORBITAL ENERGIES
----------------

  NO   OCC          E(Eh)            E(eV)
   0   2.0000     -19.139573      -520.8143
   1   2.0000     -19.135673      -520.7081
   2   2.0000     -19.124105      -520.3934
   3   2.0000     -10.278039      -279.6797
   4   2.0000     -10.241389      -278.6824
   5   2.0000     -10.221359      -278.1373
   6   2.0000     -10.219285      -278.0809
   7   2.0000     -10.217282      -278.0264
   8   2.0000     -10.185391      -277.1586
   9   2.0000     -10.183885      -277.1176
  10   2.0000     -10.183341      -277.1028
  11   2.0000      -1.050973       -28.5984
  12   2.0000      -1.011685       -27.5293
  13   2.0000      -0.988546       -26.8997
  14   2.0000      -0.789580       -21.4856
  15   2.0000      -0.775844       -21.1118
  16   2.0000      -0.735217       -20.0063
  17   2.0000      -0.721840       -19.6423
  18   2.0000      -0.610401       -16.6098
  19   2.0000      -0.595975       -16.2173
  20   2.0000      -0.593027       -16.1371
  21   2.0000      -0.574694       -15.6382
  22   2.0000      -0.522830       -14.2269
  23   2.0000      -0.500013       -13.6061
  24   2.0000      -0.484292       -13.1783
  25   2.0000      -0.474716       -12.9177
  26   2.0000      -0.447668       -12.1817
  27   2.0000      -0.438996       -11.9457
  28   2.0000      -0.437511       -11.9053
  29   2.0000      -0.411553       -11.1989
  30   2.0000      -0.404488       -11.0067
  31   2.0000      -0.380477       -10.3533
  32   2.0000      -0.367381        -9.9969
  33   2.0000      -0.363696        -9.8967
  34   2.0000      -0.355214        -9.6659
  35   2.0000      -0.354284        -9.6406
  36   2.0000      -0.345090        -9.3904
  37   2.0000      -0.316622        -8.6157
  38   2.0000      -0.305328        -8.3084
  39   2.0000      -0.299810        -8.1582
  40   2.0000      -0.262798        -7.1511
  41   2.0000      -0.245416        -6.6781
  42   2.0000      -0.230392        -6.2693
  43   0.0000       0.079125         2.1531
  44   0.0000       0.095642         2.6026
  45   0.0000       0.103513         2.8167
  46   0.0000       0.116499         3.1701
  47   0.0000       0.122737         3.3398

MULLIKEN ATOMIC CHARGES
-----------------------
   0 C :    0.287288
   1 C :   -0.252291
   2 C :   -0.300510
   3 C :    0.000590
   4 O :   -0.502671
   5 H :    0.135807
   6 H :    0.141468
   7 H :    0.144430
   8 H :    0.140232
   9 H :    0.162084
  10 H :    0.154290
  11 H :    0.139833
  12 C :   -0.003340
  13 H :    0.121681
  14 C :    0.060072
  15 C :   -0.296895
  16 C :    0.006431
  17 O :   -0.514922
  18 H :    0.172072
  19 O :   -0.509960
  20 H :    0.122817
  21 H :    0.163445
  22 H :    0.140779
  23 H :    0.132666
  24 H :    0.154605
Sum of atomic charges:   -0.0000000

LOEWDIN ATOMIC CHARGES
----------------------
   0 C :    0.174092
   1 C :   -0.220051
   2 C :   -0.216562
   3 C :   -0.025524
   4 O :   -0.315248
   5 H :    0.096468
   6 H :    0.111557
   7 H :    0.117310
   8 H :    0.113324
   9 H :    0.119112
  10 H :    0.109360
  11 H :    0.101391
  12 C :   -0.048711
  13 H :    0.090253
  14 C :    0.036855
  15 C :   -0.224620
  16 C :   -0.026804
  17 O :   -0.325499
  18 H :    0.122485
  19 O :   -0.326573
  20 H :    0.091952
  21 H :    0.127770
  22 H :    0.112163
  23 H :    0.096798
  24 H :    0.108704

  Mayer bond orders larger than 0.100000
B(  0-C ,  1-C ) :   0.9439 B(  0-C ,  4-O ) :   0.9264 B(  0-C ,  5-H ) :   0.9185
B(  0-C , 19-O ) :   0.8398 B(  1-C ,  2-C ) :   0.9574 B(  1-C ,  6-H ) :   0.9371
B(  1-C ,  7-H ) :   0.9388 B(  2-C ,  3-C ) :   0.9541 B(  2-C ,  8-H ) :   0.9452
B(  2-C ,  9-H ) :   0.9438 B(  3-C ,  4-O ) :   0.8380 B(  3-C , 10-H ) :   0.9342
B(  3-C , 11-H ) :   0.9399 B( 12-C , 13-H ) :   0.9080 B( 12-C , 14-C ) :   0.9109
B( 12-C , 17-O ) :   0.8757 B( 12-C , 18-H ) :   0.9269 B( 14-C , 15-C ) :   0.9591
B( 14-C , 19-O ) :   0.8435 B( 14-C , 20-H ) :   0.9206 B( 15-C , 16-C ) :   0.9477
B( 15-C , 21-H ) :   0.9363 B( 15-C , 22-H ) :   0.9420 B( 16-C , 17-O ) :   0.8555
B( 16-C , 23-H ) :   0.9329 B( 16-C , 24-H ) :   0.9362

FINAL SINGLE POINT ENERGY      -538.432606227127

DIPOLE MOMENT
-------------
                                X             Y             Z
Electronic contribution:      0.03211      -3.45397       1.41795
Nuclear contribution   :      0.11978       4.41332      -2.52396
                        -----------------------------------------
Total Dipole Moment    :      0.15189       0.95935      -1.10601
                        -----------------------------------------
Magnitude (a.u.)       :      1.47197
Magnitude (Debye)      :      3.74145

Rotational constants in cm-1:     0.077722     0.020985     0.020020
Rotational constants in MHz :  2330.054520   629.122875   600.175377

                             ****ORCA TERMINATED NORMALLY****
TOTAL RUN TIME: 0 days 0 hours 5 minutes 44 seconds 341 msec
