                         Program Version 4.2.0 -  RELEASE  -
|  1> # Test redundant internal optimization
|  2> #
|  3> ! RKS B3LYP  Opt TightSCF SmallPrint
|  4>
|  5> %basis
|  6>         Basis "6-31G"
|  7> end
|  8>
|  9> %geom
| 10> Constraints
| 11> { D 4  0  15  12  225.0   C } # D for Dihedral angle
| 12> { D 0  15  12  16  225.0   C } # D for Dihedral angle
| 13> { D 0  4  3  2   C } # D for Dihedral angle
| 14> { D 4  3  2  1   C } # D for Dihedral angle
| 15> { D 3  2  1  0   C } # D for Dihedral angle
| 16> { D 2  1  0  4   C } # D for Dihedral angle
| 17> { D 1  0  4  3   C } # D for Dihedral angle
| 18> { D 16  20  19  18   C } # D for Dihedral angle
| 19> { D 20  19  18  17   C } # D for Dihedral angle
| 20> { D 19  18  17  16   C } # D for Dihedral angle
| 21> { D 18  17  16  20   C } # D for Dihedral angle
| 22> { D 17  16  20  19   C } # D for Dihedral angle
| 23> { D 15  12  16  20   C } # D for Dihedral angle
| 24> end
| 25> end
| 26>
| 27>
| 28> #%pal
| 29> #nprocs 8
| 30> #end
| 31>
| 32> * xyz 0 1
| 33> C  -21.048   26.222   46.251
| 34> C  -20.361   27.558   45.944
| 35> C  -20.329   28.222   47.341
| 36> C  -20.110   27.022   48.296
| 37> O  -20.473   25.807   47.535
| 38> H  -20.833   25.428   45.533
| 39> H  -19.344   27.382   45.576
| 40> H  -20.898   28.157   45.201
| 41> H  -19.543   28.978   47.434
| 42> H  -21.289   28.710   47.548
| 43> H  -20.733   27.082   49.195
| 44> H  -19.064   26.913   48.597
| 45> C  -23.415   25.773   45.218
| 46> H  -22.748   25.541   44.378
| 47> H  -23.892   24.840   45.545
| 48> O  -22.586   26.394   46.375
| 49> C  -24.534   26.721   44.705
| 50> C  -25.404   26.034   43.646
| 51> C  -26.333   25.160   44.522
| 52> C  -26.551   26.034   45.783
| 53> O  -25.470   27.042   45.787
| 54> H  -24.085   27.662   44.380
| 55> H  -25.985   26.781   43.093
| 56> O  -24.580   25.201   42.626
| 57> H  -27.273   24.907   44.022
| 58> H  -25.830   24.222   44.785
| 59> H  -26.503   25.452   46.710
| 60> H  -27.500   26.578   45.755
| 61> H  -23.991   24.445   43.157
| 62> *
| 63>
| 64>                          ****END OF INPUT****
 Total Charge           Charge          ....    0
 Multiplicity           Mult            ....    1
 Number of Electrons    NEL             ....  102
FINAL SINGLE POINT ENERGY      -652.825530249202
FINAL SINGLE POINT ENERGY      -652.848643931877
FINAL SINGLE POINT ENERGY      -652.852829028536
FINAL SINGLE POINT ENERGY      -652.853639422790
FINAL SINGLE POINT ENERGY      -652.853802774624
FINAL SINGLE POINT ENERGY      -652.853836382089
FINAL SINGLE POINT ENERGY      -652.853842252133
FINAL SINGLE POINT ENERGY      -652.853843279522
                    ***********************HURRAY********************

CARTESIAN COORDINATES (ANGSTROEM)
---------------------------------
  C    -21.038194   26.180727   46.199808
  C    -20.431994   27.552926   45.910983
  C    -20.501695   28.232405   47.299688
  C    -20.243927   27.059890   48.270089
  O    -20.500940   25.824357   47.485172
  H    -20.762488   25.386436   45.498824
  H    -19.390775   27.431998   45.587515
  H    -20.979419   28.097230   45.137601
  H    -19.770639   29.038465   47.412112
  H    -21.503403   28.643863   47.454044
  H    -20.908441   27.065369   49.137284
  H    -19.204443   27.005251   48.607468
  C    -23.270873   25.673314   45.240401
  H    -22.643181   25.438369   44.368784
  H    -23.695857   24.736224   45.626980
  O    -22.485427   26.290140   46.292741
  C    -24.372197   26.632821   44.792619
  C    -25.292125   26.049834   43.706313
  C    -26.305193   25.223287   44.554375
  C    -26.453426   26.077292   45.832652
  O    -25.286253   26.994029   45.870435
  H    -23.901662   27.568438   44.475583
  H    -25.802156   26.864406   43.187895
  O    -24.619421   25.309462   42.656803
  H    -27.252748   25.067745   44.032216
  H    -25.876744   24.237023   44.778959
  H    -26.464577   25.476821   46.747381
  H    -27.350485   26.703103   45.810422
  H    -24.396320   24.406777   42.962853

 Multiplicity           Mult            ....    1
 Number of Electrons    NEL             ....  102
 Basis Dimension        Dim             ....  149

ORBITAL ENERGIES
----------------

  NO   OCC          E(Eh)            E(eV)
   0   2.0000     -19.152650      -521.1701
   1   2.0000     -19.136665      -520.7351
   2   2.0000     -19.135142      -520.6937
   3   2.0000     -19.134557      -520.6778
   4   2.0000     -10.276167      -279.6287
   5   2.0000     -10.246848      -278.8309
   6   2.0000     -10.231596      -278.4159
   7   2.0000     -10.231065      -278.4014
   8   2.0000     -10.230258      -278.3795
   9   2.0000     -10.219195      -278.0784
  10   2.0000     -10.197374      -277.4847
  11   2.0000     -10.180781      -277.0331
  12   2.0000     -10.179587      -277.0006
  13   2.0000      -1.048030       -28.5183
  14   2.0000      -1.035025       -28.1644
  15   2.0000      -1.016384       -27.6572
  16   2.0000      -0.989690       -26.9308
  17   2.0000      -0.784934       -21.3591
  18   2.0000      -0.780789       -21.2464
  19   2.0000      -0.766859       -20.8673
  20   2.0000      -0.728069       -19.8118
  21   2.0000      -0.679796       -18.4982
  22   2.0000      -0.613363       -16.6905
  23   2.0000      -0.593393       -16.1471
  24   2.0000      -0.588992       -16.0273
  25   2.0000      -0.578982       -15.7549
  26   2.0000      -0.528215       -14.3735
  27   2.0000      -0.511710       -13.9243
  28   2.0000      -0.498021       -13.5518
  29   2.0000      -0.487530       -13.2664
  30   2.0000      -0.466080       -12.6827
  31   2.0000      -0.455531       -12.3956
  32   2.0000      -0.445486       -12.1223
  33   2.0000      -0.435382       -11.8473
  34   2.0000      -0.426588       -11.6081
  35   2.0000      -0.420401       -11.4397
  36   2.0000      -0.405521       -11.0348
  37   2.0000      -0.396530       -10.7901
  38   2.0000      -0.376833       -10.2541
  39   2.0000      -0.369646       -10.0586
  40   2.0000      -0.355460        -9.6726
  41   2.0000      -0.352043        -9.5796
  42   2.0000      -0.346748        -9.4355
  43   2.0000      -0.329716        -8.9720
  44   2.0000      -0.318278        -8.6608
  45   2.0000      -0.309265        -8.4155
  46   2.0000      -0.300765        -8.1842
  47   2.0000      -0.273364        -7.4386
  48   2.0000      -0.259482        -7.0609
  49   2.0000      -0.250842        -6.8258
  50   2.0000      -0.234008        -6.3677
  51   0.0000       0.048234         1.3125
  52   0.0000       0.078458         2.1349
  53   0.0000       0.086367         2.3502
  54   0.0000       0.089475         2.4347
  55   0.0000       0.100796         2.7428

MULLIKEN ATOMIC CHARGES
-----------------------
   0 C :    0.281007
   1 C :   -0.253523
   2 C :   -0.300873
   3 C :   -0.000436
   4 O :   -0.502681
   5 H :    0.134896
   6 H :    0.139870
   7 H :    0.144015
   8 H :    0.138991
   9 H :    0.170461
  10 H :    0.154384
  11 H :    0.138455
  12 C :   -0.012850
  13 H :    0.130135
  14 H :    0.129836
  15 O :   -0.502036
  16 C :    0.101512
  17 C :    0.083465
  18 C :   -0.331190
  19 C :   -0.004004
  20 O :   -0.503968
  21 H :    0.152071
  22 H :    0.167737
  23 O :   -0.601849
  24 H :    0.158563
  25 H :    0.135302
  26 H :    0.147799
  27 H :    0.148167
  28 H :    0.356742
Sum of atomic charges:   -0.0000000

LOEWDIN ATOMIC CHARGES
----------------------
   0 C :    0.176688
   1 C :   -0.224226
   2 C :   -0.216893
   3 C :   -0.025402
   4 O :   -0.312055
   5 H :    0.095339
   6 H :    0.110902
   7 H :    0.115939
   8 H :    0.113035
   9 H :    0.123438
  10 H :    0.109435
  11 H :    0.100560
  12 C :   -0.046818
  13 H :    0.098162
  14 H :    0.094867
  15 O :   -0.322809
  16 C :    0.018863
  17 C :    0.033951
  18 C :   -0.242424
  19 C :   -0.028030
  20 O :   -0.312827
  21 H :    0.114105
  22 H :    0.119414
  23 O :   -0.409552
  24 H :    0.122702
  25 H :    0.104576
  26 H :    0.105159
  27 H :    0.105591
  28 H :    0.278312

  Mayer bond orders larger than 0.100000
B(  0-C ,  1-C ) :   0.9366 B(  0-C ,  4-O ) :   0.9360 B(  0-C ,  5-H ) :   0.9188
B(  0-C , 15-O ) :   0.8442 B(  1-C ,  2-C ) :   0.9567 B(  1-C ,  6-H ) :   0.9353
B(  1-C ,  7-H ) :   0.9382 B(  2-C ,  3-C ) :   0.9550 B(  2-C ,  8-H ) :   0.9452
B(  2-C ,  9-H ) :   0.9415 B(  3-C ,  4-O ) :   0.8361 B(  3-C , 10-H ) :   0.9345
B(  3-C , 11-H ) :   0.9399 B( 12-C , 13-H ) :   0.9034 B( 12-C , 14-H ) :   0.9242
B( 12-C , 15-O ) :   0.8527 B( 12-C , 16-C ) :   0.9018 B( 16-C , 17-C ) :   0.8686
B( 16-C , 20-O ) :   0.8746 B( 16-C , 21-H ) :   0.9314 B( 17-C , 18-C ) :   0.9272
B( 17-C , 22-H ) :   0.9331 B( 17-C , 23-O ) :   0.8937 B( 18-C , 19-C ) :   0.9380
B( 18-C , 24-H ) :   0.9416 B( 18-C , 25-H ) :   0.9392 B( 19-C , 20-O ) :   0.8503
B( 19-C , 26-H ) :   0.9315 B( 19-C , 27-H ) :   0.9379 B( 23-O , 28-H ) :   0.7985

FINAL SINGLE POINT ENERGY      -652.853843541832

DIPOLE MOMENT
-------------
                                X             Y             Z
Electronic contribution:     -0.57837      -1.37903      -0.28272
Nuclear contribution   :      0.37216       1.11376      -0.18169
                        -----------------------------------------
Total Dipole Moment    :     -0.20621      -0.26528      -0.46442
                        -----------------------------------------
Magnitude (a.u.)       :      0.57322
Magnitude (Debye)      :      1.45701

Rotational constants in cm-1:     0.057114     0.012038     0.011226
Rotational constants in MHz :  1712.221894   360.903017   336.543012

                             ****ORCA TERMINATED NORMALLY****
TOTAL RUN TIME: 0 days 0 hours 26 minutes 9 seconds 640 msec
