                         Program Version 4.2.0 -  RELEASE  -
|  1> # Test redundant internal optimization
|  2> #
|  3> ! RKS B3LYP  Opt TightSCF SmallPrint
|  4>
|  5> %basis
|  6>         Basis "6-31G"
|  7> end
|  8>
|  9> %geom
| 10> Constraints
| 11> { D 4  0  15  12  15.0   C } # D for Dihedral angle
| 12> { D 0  15  12  16  150.0   C } # D for Dihedral angle
| 13> { D 0  4  3  2   C } # D for Dihedral angle
| 14> { D 4  3  2  1   C } # D for Dihedral angle
| 15> { D 3  2  1  0   C } # D for Dihedral angle
| 16> { D 2  1  0  4   C } # D for Dihedral angle
| 17> { D 1  0  4  3   C } # D for Dihedral angle
| 18> { D 16  20  19  18   C } # D for Dihedral angle
| 19> { D 20  19  18  17   C } # D for Dihedral angle
| 20> { D 19  18  17  16   C } # D for Dihedral angle
| 21> { D 18  17  16  20   C } # D for Dihedral angle
| 22> { D 17  16  20  19   C } # D for Dihedral angle
| 23> { D 15  12  16  20   C } # D for Dihedral angle
| 24> end
| 25> end
| 26>
| 27>
| 28> #%pal
| 29> #nprocs 8
| 30> #end
| 31>
| 32> * xyz 0 1
| 33> C  -21.048   26.222   46.251
| 34> C  -20.361   27.558   45.944
| 35> C  -20.329   28.222   47.341
| 36> C  -20.110   27.022   48.296
| 37> O  -20.473   25.807   47.535
| 38> H  -20.833   25.428   45.533
| 39> H  -19.344   27.382   45.576
| 40> H  -20.898   28.157   45.201
| 41> H  -19.543   28.978   47.434
| 42> H  -21.289   28.710   47.548
| 43> H  -20.733   27.082   49.195
| 44> H  -19.064   26.913   48.597
| 45> C  -23.128   26.462   47.829
| 46> H  -23.360   25.448   48.177
| 47> H  -22.372   26.890   48.501
| 48> O  -22.586   26.394   46.375
| 49> C  -24.413   27.327   47.951
| 50> C  -25.578   26.704   47.174
| 51> C  -26.047   25.595   48.147
| 52> C  -25.817   26.231   49.541
| 53> O  -24.880   27.357   49.341
| 54> H  -24.180   28.356   47.670
| 55> H  -26.370   27.447   47.026
| 56> O  -25.160   26.151   45.785
| 57> H  -27.089   25.304   47.987
| 58> H  -25.426   24.700   48.023
| 59> H  -25.383   25.526   50.257
| 60> H  -26.735   26.646   49.966
| 61> H  -24.367   25.404   45.910
| 62> *
| 63>
| 64>                          ****END OF INPUT****
 Total Charge           Charge          ....    0
 Multiplicity           Mult            ....    1
 Number of Electrons    NEL             ....  102
FINAL SINGLE POINT ENERGY      -652.825989378414
FINAL SINGLE POINT ENERGY      -652.850763027742
FINAL SINGLE POINT ENERGY      -652.857687869944
FINAL SINGLE POINT ENERGY      -652.860906683717
FINAL SINGLE POINT ENERGY      -652.862329389808
FINAL SINGLE POINT ENERGY      -652.863180007818
FINAL SINGLE POINT ENERGY      -652.863481130212
FINAL SINGLE POINT ENERGY      -652.863543721840
FINAL SINGLE POINT ENERGY      -652.863550708557
                    ***********************HURRAY********************

CARTESIAN COORDINATES (ANGSTROEM)
---------------------------------
  C    -21.135935   26.222187   46.406587
  C    -20.523759   27.549128   45.954709
  C    -20.248594   28.250901   47.308033
  C    -19.857400   27.079246   48.235844
  O    -20.356110   25.847032   47.555789
  H    -21.040423   25.411926   45.681775
  H    -19.589644   27.346474   45.418504
  H    -21.193716   28.113720   45.302581
  H    -19.456770   29.002651   47.238324
  H    -21.154597   28.752319   47.665295
  H    -20.302470   27.136871   49.232606
  H    -18.774876   26.958312   48.333631
  C    -23.111104   26.397768   48.020193
  H    -23.300260   25.381938   48.384375
  H    -22.414483   26.877972   48.708680
  O    -22.573239   26.332453   46.657345
  C    -24.399996   27.225680   47.959157
  C    -25.528415   26.615436   47.110509
  C    -26.111084   25.546237   48.081700
  C    -25.965143   26.213517   49.464753
  O    -24.966405   27.313277   49.303266
  H    -24.157192   28.245450   47.646665
  H    -26.284232   27.388089   46.928971
  O    -25.142444   26.087177   45.828204
  H    -27.147099   25.298761   47.836861
  H    -25.518070   24.629477   47.999072
  H    -25.609374   25.530174   50.242297
  H    -26.891611   26.684024   49.806354
  H    -24.161556   25.984802   45.798919

 Multiplicity           Mult            ....    1
 Number of Electrons    NEL             ....  102
 Basis Dimension        Dim             ....  149

ORBITAL ENERGIES
----------------

  NO   OCC          E(Eh)            E(eV)
   0   2.0000     -19.161521      -521.4115
   1   2.0000     -19.159333      -521.3520
   2   2.0000     -19.139210      -520.8044
   3   2.0000     -19.110362      -520.0194
   4   2.0000     -10.293189      -280.0919
   5   2.0000     -10.241837      -278.6946
   6   2.0000     -10.236547      -278.5506
   7   2.0000     -10.232767      -278.4477
   8   2.0000     -10.228213      -278.3238
   9   2.0000     -10.225238      -278.2429
  10   2.0000     -10.200864      -277.5796
  11   2.0000     -10.196138      -277.4510
  12   2.0000     -10.176810      -276.9251
  13   2.0000      -1.067218       -29.0405
  14   2.0000      -1.024865       -27.8880
  15   2.0000      -1.007117       -27.4051
  16   2.0000      -0.989656       -26.9299
  17   2.0000      -0.800017       -21.7696
  18   2.0000      -0.777156       -21.1475
  19   2.0000      -0.766791       -20.8654
  20   2.0000      -0.738124       -20.0854
  21   2.0000      -0.678792       -18.4709
  22   2.0000      -0.613795       -16.7022
  23   2.0000      -0.600695       -16.3457
  24   2.0000      -0.593847       -16.1594
  25   2.0000      -0.576881       -15.6977
  26   2.0000      -0.536489       -14.5986
  27   2.0000      -0.511620       -13.9219
  28   2.0000      -0.509671       -13.8689
  29   2.0000      -0.487893       -13.2763
  30   2.0000      -0.476924       -12.9778
  31   2.0000      -0.458069       -12.4647
  32   2.0000      -0.443233       -12.0610
  33   2.0000      -0.429819       -11.6960
  34   2.0000      -0.425487       -11.5781
  35   2.0000      -0.424705       -11.5568
  36   2.0000      -0.408342       -11.1116
  37   2.0000      -0.386921       -10.5287
  38   2.0000      -0.385408       -10.4875
  39   2.0000      -0.370789       -10.0897
  40   2.0000      -0.364999        -9.9321
  41   2.0000      -0.361099        -9.8260
  42   2.0000      -0.357408        -9.7256
  43   2.0000      -0.341275        -9.2866
  44   2.0000      -0.331020        -9.0075
  45   2.0000      -0.319778        -8.7016
  46   2.0000      -0.288186        -7.8420
  47   2.0000      -0.274270        -7.4633
  48   2.0000      -0.266519        -7.2524
  49   2.0000      -0.248136        -6.7521
  50   2.0000      -0.239090        -6.5060
  51   0.0000       0.057242         1.5576
  52   0.0000       0.070068         1.9066
  53   0.0000       0.090377         2.4593
  54   0.0000       0.096505         2.6260
  55   0.0000       0.100617         2.7379

MULLIKEN ATOMIC CHARGES
-----------------------
   0 C :    0.311673
   1 C :   -0.260167
   2 C :   -0.314523
   3 C :   -0.026909
   4 O :   -0.505657
   5 H :    0.166400
   6 H :    0.152254
   7 H :    0.162569
   8 H :    0.154426
   9 H :    0.158348
  10 H :    0.154815
  11 H :    0.157598
  12 C :   -0.007734
  13 H :    0.150720
  14 H :    0.158602
  15 O :   -0.580861
  16 C :    0.056758
  17 C :    0.118262
  18 C :   -0.299555
  19 C :   -0.023093
  20 O :   -0.524235
  21 H :    0.150795
  22 H :    0.146703
  23 O :   -0.639441
  24 H :    0.150179
  25 H :    0.146742
  26 H :    0.143488
  27 H :    0.148511
  28 H :    0.393331
Sum of atomic charges:   -0.0000000

LOEWDIN ATOMIC CHARGES
----------------------
   0 C :    0.185926
   1 C :   -0.222241
   2 C :   -0.221225
   3 C :   -0.034724
   4 O :   -0.312452
   5 H :    0.111666
   6 H :    0.118190
   7 H :    0.126234
   8 H :    0.121257
   9 H :    0.114943
  10 H :    0.105844
  11 H :    0.110279
  12 C :   -0.038407
  13 H :    0.104782
  14 H :    0.111623
  15 O :   -0.351456
  16 C :    0.016395
  17 C :    0.041258
  18 C :   -0.236877
  19 C :   -0.032700
  20 O :   -0.326691
  21 H :    0.110550
  22 H :    0.104856
  23 O :   -0.434861
  24 H :    0.120944
  25 H :    0.112159
  26 H :    0.102189
  27 H :    0.105555
  28 H :    0.286984

  Mayer bond orders larger than 0.100000
B(  0-C ,  1-C ) :   0.9284 B(  0-C ,  4-O ) :   0.9323 B(  0-C ,  5-H ) :   0.9323
B(  0-C , 15-O ) :   0.8023 B(  1-C ,  2-C ) :   0.9514 B(  1-C ,  6-H ) :   0.9337
B(  1-C ,  7-H ) :   0.9355 B(  2-C ,  3-C ) :   0.9511 B(  2-C ,  8-H ) :   0.9438
B(  2-C ,  9-H ) :   0.9432 B(  3-C ,  4-O ) :   0.8248 B(  3-C , 10-H ) :   0.9278
B(  3-C , 11-H ) :   0.9383 B( 12-C , 13-H ) :   0.9272 B( 12-C , 14-H ) :   0.9165
B( 12-C , 15-O ) :   0.7712 B( 12-C , 16-C ) :   0.8993 B( 16-C , 17-C ) :   0.9144
B( 16-C , 20-O ) :   0.8543 B( 16-C , 21-H ) :   0.9288 B( 17-C , 18-C ) :   0.9017
B( 17-C , 22-H ) :   0.9299 B( 17-C , 23-O ) :   0.9363 B( 18-C , 19-C ) :   0.9387
B( 18-C , 24-H ) :   0.9448 B( 18-C , 25-H ) :   0.9428 B( 19-C , 20-O ) :   0.8301
B( 19-C , 26-H ) :   0.9341 B( 19-C , 27-H ) :   0.9388 B( 23-O , 28-H ) :   0.7231

FINAL SINGLE POINT ENERGY      -652.863552640678

DIPOLE MOMENT
-------------
                                X             Y             Z
Electronic contribution:     -1.04516      -1.63516      -1.38719
Nuclear contribution   :      2.06108       2.09842       1.73609
                        -----------------------------------------
Total Dipole Moment    :      1.01592       0.46326       0.34889
                        -----------------------------------------
Magnitude (a.u.)       :      1.16980
Magnitude (Debye)      :      2.97340

Rotational constants in cm-1:     0.052604     0.014533     0.013065
Rotational constants in MHz :  1577.031483   435.678165   391.690361

                             ****ORCA TERMINATED NORMALLY****
TOTAL RUN TIME: 0 days 0 hours 28 minutes 5 seconds 477 msec
