                         Program Version 4.2.0 -  RELEASE  -
|  1> # Test redundant internal optimization
|  2> #
|  3> ! RKS B3LYP  Opt TightSCF SmallPrint
|  4>
|  5> %basis
|  6>         Basis "6-31G"
|  7> end
|  8>
|  9> %geom
| 10> Constraints
| 11> { D 4  0  15  12  120.0   C } # D for Dihedral angle
| 12> { D 0  15  12  16  120.0   C } # D for Dihedral angle
| 13> { D 0  4  3  2   C } # D for Dihedral angle
| 14> { D 4  3  2  1   C } # D for Dihedral angle
| 15> { D 3  2  1  0   C } # D for Dihedral angle
| 16> { D 2  1  0  4   C } # D for Dihedral angle
| 17> { D 1  0  4  3   C } # D for Dihedral angle
| 18> { D 16  20  19  18   C } # D for Dihedral angle
| 19> { D 20  19  18  17   C } # D for Dihedral angle
| 20> { D 19  18  17  16   C } # D for Dihedral angle
| 21> { D 18  17  16  20   C } # D for Dihedral angle
| 22> { D 17  16  20  19   C } # D for Dihedral angle
| 23> { D 15  12  16  20   C } # D for Dihedral angle
| 24> end
| 25> end
| 26>
| 27>
| 28> #%pal
| 29> #nprocs 8
| 30> #end
| 31>
| 32> * xyz 0 1
| 33> C  -21.048   26.222   46.251
| 34> C  -20.361   27.558   45.944
| 35> C  -20.329   28.222   47.341
| 36> C  -20.110   27.022   48.296
| 37> O  -20.473   25.807   47.535
| 38> H  -20.833   25.428   45.533
| 39> H  -19.344   27.382   45.576
| 40> H  -20.898   28.157   45.201
| 41> H  -19.543   28.978   47.434
| 42> H  -21.289   28.710   47.548
| 43> H  -20.733   27.082   49.195
| 44> H  -19.064   26.913   48.597
| 45> C  -23.119   27.818   46.058
| 46> H  -23.624   28.221   46.944
| 47> H  -22.290   28.490   45.800
| 48> O  -22.586   26.394   46.375
| 49> C  -24.125   27.833   44.874
| 50> C  -23.517   27.198   43.618
| 51> C  -23.665   25.689   43.926
| 52> C  -25.003   25.619   44.704
| 53> O  -25.287   26.991   45.178
| 54> H  -24.496   28.850   44.732
| 55> O  -24.351   27.586   42.367
| 56> H  -22.477   27.496   43.445
| 57> H  -23.674   25.070   43.024
| 58> H  -22.834   25.350   44.556
| 59> H  -24.953   24.944   45.566
| 60> H  -25.841   25.318   44.068
| 61> H  -25.397   27.296   42.518
| 62> *
| 63>
| 64>                          ****END OF INPUT****
 Total Charge           Charge          ....    0
 Multiplicity           Mult            ....    1
 Number of Electrons    NEL             ....  102
FINAL SINGLE POINT ENERGY      -652.815216697240
FINAL SINGLE POINT ENERGY      -652.840215729855
FINAL SINGLE POINT ENERGY      -652.850155987939
FINAL SINGLE POINT ENERGY      -652.852059408848
FINAL SINGLE POINT ENERGY      -652.852400614463
FINAL SINGLE POINT ENERGY      -652.852446072004
FINAL SINGLE POINT ENERGY      -652.852450505030
                    ***********************HURRAY********************

CARTESIAN COORDINATES (ANGSTROEM)
---------------------------------
  C    -21.145532   26.313968   46.377525
  C    -20.233989   27.480599   45.984208
  C    -20.107383   28.260284   47.322390
  C    -20.115486   27.124416   48.372773
  O    -20.675291   25.937113   47.685553
  H    -21.027415   25.422994   45.757955
  H    -19.263778   27.064780   45.692945
  H    -20.597096   28.088409   45.151693
  H    -19.193455   28.859963   47.367112
  H    -20.958696   28.933623   47.464866
  H    -20.732589   27.352035   49.246061
  H    -19.109415   26.852285   48.704306
  C    -23.204760   27.835425   46.077699
  H    -23.766855   28.156296   46.961728
  H    -22.470153   28.610944   45.834314
  O    -22.579265   26.566003   46.417821
  C    -24.190211   27.715725   44.911715
  C    -23.635667   27.223050   43.566972
  C    -23.680260   25.681824   43.748646
  C    -24.957410   25.472675   44.600742
  O    -25.276705   26.785487   45.209025
  H    -24.650487   28.703827   44.783070
  O    -24.479417   27.671216   42.469559
  H    -22.640434   27.604518   43.332140
  H    -23.727636   25.181248   42.777775
  H    -22.797892   25.338619   44.289046
  H    -24.806308   24.745906   45.402183
  H    -25.824409   25.175546   44.001149
  H    -25.416008   27.485222   42.693029

 Multiplicity           Mult            ....    1
 Number of Electrons    NEL             ....  102
 Basis Dimension        Dim             ....  149

ORBITAL ENERGIES
----------------

  NO   OCC          E(Eh)            E(eV)
   0   2.0000     -19.144803      -520.9566
   1   2.0000     -19.142367      -520.8903
   2   2.0000     -19.137728      -520.7640
   3   2.0000     -19.137223      -520.7503
   4   2.0000     -10.286921      -279.9214
   5   2.0000     -10.240644      -278.6621
   6   2.0000     -10.236666      -278.5539
   7   2.0000     -10.234220      -278.4873
   8   2.0000     -10.230941      -278.3981
   9   2.0000     -10.222448      -278.1669
  10   2.0000     -10.201143      -277.5872
  11   2.0000     -10.198841      -277.5246
  12   2.0000     -10.180679      -277.0304
  13   2.0000      -1.054529       -28.6952
  14   2.0000      -1.034153       -28.1407
  15   2.0000      -1.005386       -27.3580
  16   2.0000      -0.994757       -27.0687
  17   2.0000      -0.796055       -21.6618
  18   2.0000      -0.780074       -21.2269
  19   2.0000      -0.768502       -20.9120
  20   2.0000      -0.738596       -20.0982
  21   2.0000      -0.681586       -18.5469
  22   2.0000      -0.611463       -16.6388
  23   2.0000      -0.604760       -16.4564
  24   2.0000      -0.599528       -16.3140
  25   2.0000      -0.569357       -15.4930
  26   2.0000      -0.525549       -14.3009
  27   2.0000      -0.515639       -14.0313
  28   2.0000      -0.509724       -13.8703
  29   2.0000      -0.490481       -13.3467
  30   2.0000      -0.473400       -12.8819
  31   2.0000      -0.456253       -12.4153
  32   2.0000      -0.452702       -12.3187
  33   2.0000      -0.438847       -11.9416
  34   2.0000      -0.427555       -11.6344
  35   2.0000      -0.422852       -11.5064
  36   2.0000      -0.403219       -10.9721
  37   2.0000      -0.390006       -10.6126
  38   2.0000      -0.385957       -10.5024
  39   2.0000      -0.368839       -10.0366
  40   2.0000      -0.367797       -10.0083
  41   2.0000      -0.365261        -9.9393
  42   2.0000      -0.354775        -9.6539
  43   2.0000      -0.328413        -8.9366
  44   2.0000      -0.319580        -8.6962
  45   2.0000      -0.304237        -8.2787
  46   2.0000      -0.297257        -8.0888
  47   2.0000      -0.273648        -7.4463
  48   2.0000      -0.267362        -7.2753
  49   2.0000      -0.258846        -7.0435
  50   2.0000      -0.236827        -6.4444
  51   0.0000       0.062357         1.6968
  52   0.0000       0.073105         1.9893
  53   0.0000       0.088593         2.4107
  54   0.0000       0.092269         2.5108
  55   0.0000       0.105951         2.8831

MULLIKEN ATOMIC CHARGES
-----------------------
   0 C :    0.324187
   1 C :   -0.311980
   2 C :   -0.305736
   3 C :   -0.004359
   4 O :   -0.496514
   5 H :    0.153617
   6 H :    0.160835
   7 H :    0.148255
   8 H :    0.148389
   9 H :    0.153295
  10 H :    0.152353
  11 H :    0.146269
  12 C :   -0.005516
  13 H :    0.162603
  14 H :    0.123499
  15 O :   -0.531084
  16 C :    0.077092
  17 C :    0.073571
  18 C :   -0.286718
  19 C :   -0.017709
  20 O :   -0.524281
  21 H :    0.150306
  22 O :   -0.603655
  23 H :    0.140224
  24 H :    0.151790
  25 H :    0.159383
  26 H :    0.163093
  27 H :    0.134473
  28 H :    0.364319
Sum of atomic charges:    0.0000000

LOEWDIN ATOMIC CHARGES
----------------------
   0 C :    0.180455
   1 C :   -0.234576
   2 C :   -0.220367
   3 C :   -0.028702
   4 O :   -0.310818
   5 H :    0.101930
   6 H :    0.125323
   7 H :    0.113637
   8 H :    0.117575
   9 H :    0.110959
  10 H :    0.107786
  11 H :    0.104684
  12 C :   -0.038363
  13 H :    0.115806
  14 H :    0.096652
  15 O :   -0.330393
  16 C :    0.008911
  17 C :    0.036593
  18 C :   -0.238380
  19 C :   -0.032293
  20 O :   -0.327862
  21 H :    0.113655
  22 O :   -0.416335
  23 H :    0.109126
  24 H :    0.119867
  25 H :    0.122001
  26 H :    0.114160
  27 H :    0.095983
  28 H :    0.282985

  Mayer bond orders larger than 0.100000
B(  0-C ,  1-C ) :   0.9320 B(  0-C ,  4-O ) :   0.9160 B(  0-C ,  5-H ) :   0.9255
B(  0-C , 15-O ) :   0.8612 B(  1-C ,  2-C ) :   0.9500 B(  1-C ,  6-H ) :   0.9325
B(  1-C ,  7-H ) :   0.9268 B(  2-C ,  3-C ) :   0.9488 B(  2-C ,  8-H ) :   0.9454
B(  2-C ,  9-H ) :   0.9411 B(  3-C ,  4-O ) :   0.8438 B(  3-C , 10-H ) :   0.9339
B(  3-C , 11-H ) :   0.9393 B( 12-C , 13-H ) :   0.9254 B( 12-C , 14-H ) :   0.8992
B( 12-C , 15-O ) :   0.8573 B( 12-C , 16-C ) :   0.8934 B( 16-C , 17-C ) :   0.9084
B( 16-C , 20-O ) :   0.8744 B( 16-C , 21-H ) :   0.9187 B( 17-C , 18-C ) :   0.9231
B( 17-C , 22-O ) :   0.8904 B( 17-C , 23-H ) :   0.9356 B( 18-C , 19-C ) :   0.9463
B( 18-C , 24-H ) :   0.9364 B( 18-C , 25-H ) :   0.9212 B( 19-C , 20-O ) :   0.8394
B( 19-C , 26-H ) :   0.9322 B( 19-C , 27-H ) :   0.9371 B( 22-O , 28-H ) :   0.7951

FINAL SINGLE POINT ENERGY      -652.852449054779

DIPOLE MOMENT
-------------
                                X             Y             Z
Electronic contribution:     -4.23278      -1.87709      -0.18510
Nuclear contribution   :      5.21716       2.56477       0.12086
                        -----------------------------------------
Total Dipole Moment    :      0.98437       0.68768      -0.06423
                        -----------------------------------------
Magnitude (a.u.)       :      1.20250
Magnitude (Debye)      :      3.05652

Rotational constants in cm-1:     0.057587     0.014020     0.013388
Rotational constants in MHz :  1726.422806   420.295333   401.366802

                             ****ORCA TERMINATED NORMALLY****
TOTAL RUN TIME: 0 days 0 hours 28 minutes 48 seconds 826 msec
