                         Program Version 4.2.0 -  RELEASE  -
|  1> # Test redundant internal optimization
|  2> #
|  3> ! RKS B3LYP  Opt TightSCF SmallPrint
|  4>
|  5> %basis
|  6>         Basis "6-31G"
|  7> end
|  8>
|  9> %geom
| 10> Constraints
| 11> { D 4  0  15  12  330.0   C } # D for Dihedral angle
| 12> { D 0  15  12  16  60.0   C } # D for Dihedral angle
| 13> { D 0  4  3  2   C } # D for Dihedral angle
| 14> { D 4  3  2  1   C } # D for Dihedral angle
| 15> { D 3  2  1  0   C } # D for Dihedral angle
| 16> { D 2  1  0  4   C } # D for Dihedral angle
| 17> { D 1  0  4  3   C } # D for Dihedral angle
| 18> { D 16  20  19  18   C } # D for Dihedral angle
| 19> { D 20  19  18  17   C } # D for Dihedral angle
| 20> { D 19  18  17  16   C } # D for Dihedral angle
| 21> { D 18  17  16  20   C } # D for Dihedral angle
| 22> { D 17  16  20  19   C } # D for Dihedral angle
| 23> { D 15  12  16  20   C } # D for Dihedral angle
| 24> end
| 25> end
| 26>
| 27>
| 28> #%pal
| 29> #nprocs 8
| 30> #end
| 31>
| 32> * xyz 0 1
| 33> C  -21.048   26.222   46.251
| 34> C  -20.361   27.558   45.944
| 35> C  -20.329   28.222   47.341
| 36> C  -20.110   27.022   48.296
| 37> O  -20.473   25.807   47.535
| 38> H  -20.833   25.428   45.533
| 39> H  -19.344   27.382   45.576
| 40> H  -20.898   28.157   45.201
| 41> H  -19.543   28.978   47.434
| 42> H  -21.289   28.710   47.548
| 43> H  -20.733   27.082   49.195
| 44> H  -19.064   26.913   48.597
| 45> C  -23.271   25.476   47.424
| 46> H  -24.351   25.670   47.425
| 47> H  -23.112   24.419   47.171
| 48> O  -22.586   26.394   46.375
| 49> C  -22.732   25.703   48.864
| 50> C  -23.064   27.113   49.366
| 51> C  -24.547   26.957   49.779
| 52> C  -24.610   25.509   50.327
| 53> O  -23.412   24.813   49.811
| 54> H  -21.671   25.451   48.893
| 55> O  -22.185   27.460   50.598
| 56> H  -22.913   27.887   48.606
| 57> H  -24.861   27.698   50.522
| 58> H  -25.196   27.067   48.902
| 59> H  -25.506   24.974   49.996
| 60> H  -24.559   25.473   51.418
| 61> H  -22.320   26.697   51.374
| 62> *
| 63>
| 64>                          ****END OF INPUT****
 Total Charge           Charge          ....    0
 Multiplicity           Mult            ....    1
 Number of Electrons    NEL             ....  102
FINAL SINGLE POINT ENERGY      -652.826301854564
FINAL SINGLE POINT ENERGY      -652.845793291668
FINAL SINGLE POINT ENERGY      -652.860331689887
FINAL SINGLE POINT ENERGY      -652.863011751212
FINAL SINGLE POINT ENERGY      -652.863486539230
FINAL SINGLE POINT ENERGY      -652.863541708761
FINAL SINGLE POINT ENERGY      -652.863550071458
                    ***********************HURRAY********************

CARTESIAN COORDINATES (ANGSTROEM)
---------------------------------
  C    -21.021876   26.197444   46.347154
  C    -20.479176   27.554328   45.894472
  C    -20.279749   28.279344   47.245786
  C    -19.841511   27.147484   48.201036
  O    -20.249046   25.873342   47.522702
  H    -20.815761   25.377836   45.648511
  H    -19.522826   27.398726   45.383283
  H    -21.167085   28.070657   45.221678
  H    -19.531836   29.076521   47.186467
  H    -21.221751   28.728726   47.572615
  H    -20.314110   27.197878   49.184417
  H    -18.755779   27.090058   48.318938
  C    -23.175033   25.466756   47.497583
  H    -24.223610   25.727870   47.329070
  H    -23.053944   24.397428   47.271932
  O    -22.464365   26.271835   46.507905
  C    -22.796982   25.661195   48.971249
  C    -23.080964   27.059401   49.539600
  C    -24.607200   26.986493   49.802881
  C    -24.820553   25.514433   50.239671
  O    -23.624255   24.763978   49.787196
  H    -21.763972   25.355648   49.126816
  O    -22.314447   27.298751   50.754393
  H    -22.810896   27.864952   48.858960
  H    -24.904319   27.705781   50.570489
  H    -25.158789   27.216876   48.885472
  H    -25.714400   25.065209   49.796730
  H    -24.878051   25.403950   51.327426
  H    -22.328713   26.489099   51.307566

 Multiplicity           Mult            ....    1
 Number of Electrons    NEL             ....  102
 Basis Dimension        Dim             ....  149

ORBITAL ENERGIES
----------------

  NO   OCC          E(Eh)            E(eV)
   0   2.0000     -19.148565      -521.0590
   1   2.0000     -19.143885      -520.9316
   2   2.0000     -19.142915      -520.9052
   3   2.0000     -19.142267      -520.8876
   4   2.0000     -10.278847      -279.7016
   5   2.0000     -10.239780      -278.6386
   6   2.0000     -10.231465      -278.4123
   7   2.0000     -10.229054      -278.3467
   8   2.0000     -10.226618      -278.2804
   9   2.0000     -10.224398      -278.2200
  10   2.0000     -10.189567      -277.2722
  11   2.0000     -10.187472      -277.2152
  12   2.0000     -10.186019      -277.1757
  13   2.0000      -1.051498       -28.6127
  14   2.0000      -1.036733       -28.2109
  15   2.0000      -1.008286       -27.4368
  16   2.0000      -0.993508       -27.0347
  17   2.0000      -0.790645       -21.5145
  18   2.0000      -0.780571       -21.2404
  19   2.0000      -0.765861       -20.8401
  20   2.0000      -0.730883       -19.8883
  21   2.0000      -0.675267       -18.3749
  22   2.0000      -0.604475       -16.4486
  23   2.0000      -0.601999       -16.3812
  24   2.0000      -0.598743       -16.2926
  25   2.0000      -0.572525       -15.5792
  26   2.0000      -0.524944       -14.2844
  27   2.0000      -0.513471       -13.9723
  28   2.0000      -0.493594       -13.4314
  29   2.0000      -0.486142       -13.2286
  30   2.0000      -0.474248       -12.9049
  31   2.0000      -0.461096       -12.5471
  32   2.0000      -0.447315       -12.1721
  33   2.0000      -0.435312       -11.8455
  34   2.0000      -0.415009       -11.2930
  35   2.0000      -0.411484       -11.1970
  36   2.0000      -0.406488       -11.0611
  37   2.0000      -0.394429       -10.7330
  38   2.0000      -0.373595       -10.1660
  39   2.0000      -0.369166       -10.0455
  40   2.0000      -0.358942        -9.7673
  41   2.0000      -0.358230        -9.7479
  42   2.0000      -0.348667        -9.4877
  43   2.0000      -0.337466        -9.1829
  44   2.0000      -0.328236        -8.9317
  45   2.0000      -0.308583        -8.3970
  46   2.0000      -0.305799        -8.3212
  47   2.0000      -0.272118        -7.4047
  48   2.0000      -0.268453        -7.3050
  49   2.0000      -0.256173        -6.9708
  50   2.0000      -0.239900        -6.5280
  51   0.0000       0.062452         1.6994
  52   0.0000       0.079135         2.1534
  53   0.0000       0.094360         2.5677
  54   0.0000       0.095045         2.5863
  55   0.0000       0.099988         2.7208

MULLIKEN ATOMIC CHARGES
-----------------------
   0 C :    0.307463
   1 C :   -0.265748
   2 C :   -0.308684
   3 C :   -0.041640
   4 O :   -0.516620
   5 H :    0.148656
   6 H :    0.148540
   7 H :    0.160982
   8 H :    0.146741
   9 H :    0.159526
  10 H :    0.176781
  11 H :    0.149826
  12 C :   -0.005166
  13 H :    0.144840
  14 H :    0.148490
  15 O :   -0.540113
  16 C :    0.033959
  17 C :    0.084656
  18 C :   -0.305141
  19 C :   -0.028348
  20 O :   -0.527023
  21 H :    0.197684
  22 O :   -0.607472
  23 H :    0.165607
  24 H :    0.162617
  25 H :    0.150840
  26 H :    0.145362
  27 H :    0.146963
  28 H :    0.366421
Sum of atomic charges:    0.0000000

LOEWDIN ATOMIC CHARGES
----------------------
   0 C :    0.178920
   1 C :   -0.215634
   2 C :   -0.216436
   3 C :   -0.041663
   4 O :   -0.324359
   5 H :    0.096282
   6 H :    0.116026
   7 H :    0.126216
   8 H :    0.116897
   9 H :    0.113183
  10 H :    0.116832
  11 H :    0.106914
  12 C :   -0.035606
  13 H :    0.109570
  14 H :    0.105525
  15 O :   -0.340662
  16 C :   -0.002803
  17 C :    0.032055
  18 C :   -0.240068
  19 C :   -0.038829
  20 O :   -0.327824
  21 H :    0.130221
  22 O :   -0.415839
  23 H :    0.117099
  24 H :    0.126814
  25 H :    0.116532
  26 H :    0.103784
  27 H :    0.102695
  28 H :    0.284157

  Mayer bond orders larger than 0.100000
B(  0-C ,  1-C ) :   0.9389 B(  0-C ,  4-O ) :   0.9068 B(  0-C ,  5-H ) :   0.9257
B(  0-C , 15-O ) :   0.8478 B(  1-C ,  2-C ) :   0.9554 B(  1-C ,  6-H ) :   0.9379
B(  1-C ,  7-H ) :   0.9362 B(  2-C ,  3-C ) :   0.9568 B(  2-C ,  8-H ) :   0.9442
B(  2-C ,  9-H ) :   0.9378 B(  3-C ,  4-O ) :   0.8159 B(  3-C , 10-H ) :   0.9067
B(  3-C , 11-H ) :   0.9407 B( 12-C , 13-H ) :   0.9415 B( 12-C , 14-H ) :   0.9198
B( 12-C , 15-O ) :   0.8381 B( 12-C , 16-C ) :   0.8826 B( 16-C , 17-C ) :   0.9068
B( 16-C , 20-O ) :   0.8199 B( 16-C , 21-H ) :   0.9054 B( 17-C , 18-C ) :   0.9164
B( 17-C , 22-O ) :   0.8655 B( 17-C , 23-H ) :   0.9195 B( 18-C , 19-C ) :   0.9436
B( 18-C , 24-H ) :   0.9368 B( 18-C , 25-H ) :   0.9340 B( 19-C , 20-O ) :   0.8478
B( 19-C , 26-H ) :   0.9353 B( 19-C , 27-H ) :   0.9377 B( 22-O , 28-H ) :   0.7941

FINAL SINGLE POINT ENERGY      -652.863551677832

DIPOLE MOMENT
-------------
                                X             Y             Z
Electronic contribution:      0.43921      -3.92215       0.54369
Nuclear contribution   :     -0.72400       4.52788      -0.65045
                        -----------------------------------------
Total Dipole Moment    :     -0.28479       0.60573      -0.10676
                        -----------------------------------------
Magnitude (a.u.)       :      0.67781
Magnitude (Debye)      :      1.72284

Rotational constants in cm-1:     0.048267     0.017776     0.015717
Rotational constants in MHz :  1447.008930   532.903369   471.187227

                             ****ORCA TERMINATED NORMALLY****
TOTAL RUN TIME: 0 days 1 hours 55 minutes 24 seconds 828 msec
