                         Program Version 4.2.0 -  RELEASE  -
|  1> # Test redundant internal optimization
|  2> #
|  3> ! RKS B3LYP  Opt TightSCF SmallPrint
|  4>
|  5> %basis
|  6>         Basis "6-31G"
|  7> end
|  8>
|  9> %geom
| 10> Constraints
| 11> { D 4  0  15  12  255.0   C } # D for Dihedral angle
| 12> { D 0  15  12  16  285.0   C } # D for Dihedral angle
| 13> { D 0  4  3  2   C } # D for Dihedral angle
| 14> { D 4  3  2  1   C } # D for Dihedral angle
| 15> { D 3  2  1  0   C } # D for Dihedral angle
| 16> { D 2  1  0  4   C } # D for Dihedral angle
| 17> { D 1  0  4  3   C } # D for Dihedral angle
| 18> { D 16  20  19  18   C } # D for Dihedral angle
| 19> { D 20  19  18  17   C } # D for Dihedral angle
| 20> { D 19  18  17  16   C } # D for Dihedral angle
| 21> { D 18  17  16  20   C } # D for Dihedral angle
| 22> { D 17  16  20  19   C } # D for Dihedral angle
| 23> { D 15  12  16  20   C } # D for Dihedral angle
| 24> end
| 25> end
| 26>
| 27>
| 28> #%pal
| 29> #nprocs 8
| 30> #end
| 31>
| 32> * xyz 0 1
| 33> C  -21.048   26.222   46.251
| 34> C  -20.361   27.558   45.944
| 35> C  -20.329   28.222   47.341
| 36> C  -20.110   27.022   48.296
| 37> O  -20.473   25.807   47.535
| 38> H  -20.833   25.428   45.533
| 39> H  -19.344   27.382   45.576
| 40> H  -20.898   28.157   45.201
| 41> H  -19.543   28.978   47.434
| 42> H  -21.289   28.710   47.548
| 43> H  -20.733   27.082   49.195
| 44> H  -19.064   26.913   48.597
| 45> C  -23.431   25.260   45.734
| 46> H  -23.009   24.288   46.019
| 47> H  -24.467   25.302   46.093
| 48> O  -22.586   26.394   46.375
| 49> C  -23.466   25.340   44.182
| 50> C  -23.963   26.711   43.707
| 51> C  -22.694   27.580   43.877
| 52> C  -21.547   26.601   43.527
| 53> O  -22.111   25.237   43.633
| 54> H  -24.035   24.494   43.793
| 55> O  -24.380   26.637   42.213
| 56> H  -24.815   27.085   44.286
| 57> H  -22.697   28.467   43.235
| 58> H  -22.608   27.921   44.916
| 59> H  -20.694   26.691   44.209
| 60> H  -21.192   26.723   42.499
| 61> H  -23.542   26.266   41.614
| 62> *
| 63>
| 64>                          ****END OF INPUT****
 Total Charge           Charge          ....    0
 Multiplicity           Mult            ....    1
 Number of Electrons    NEL             ....  102
FINAL SINGLE POINT ENERGY      -652.807360591878
FINAL SINGLE POINT ENERGY      -652.840069727155
FINAL SINGLE POINT ENERGY      -652.857437146914
FINAL SINGLE POINT ENERGY      -652.860928878956
FINAL SINGLE POINT ENERGY      -652.861495490087
FINAL SINGLE POINT ENERGY      -652.861547771802
FINAL SINGLE POINT ENERGY      -652.861554249517
FINAL SINGLE POINT ENERGY      -652.861555161104
                    ***********************HURRAY********************

CARTESIAN COORDINATES (ANGSTROEM)
---------------------------------
  C    -20.940457   26.230579   46.350929
  C    -20.278311   27.601645   46.201324
  C    -20.344957   28.152186   47.649643
  C    -20.145772   26.879232   48.503388
  O    -20.434073   25.737086   47.607331
  H    -20.706111   25.486330   45.589595
  H    -19.235840   27.464954   45.888755
  H    -20.781244   28.245880   45.479807
  H    -19.583350   28.912063   47.847279
  H    -21.331576   28.589020   47.830619
  H    -20.819300   26.831795   49.362973
  H    -19.113834   26.757687   48.847058
  C    -23.231854   25.448188   45.779540
  H    -22.893802   24.442067   46.064470
  H    -24.227453   25.600757   46.209730
  O    -22.384693   26.428766   46.443077
  C    -23.356693   25.480848   44.251383
  C    -23.990479   26.719279   43.598426
  C    -22.755611   27.634025   43.397343
  C    -21.620674   26.631561   43.072741
  O    -22.092555   25.299098   43.531051
  H    -23.970917   24.605199   44.002060
  O    -24.630440   26.370694   42.339414
  H    -24.773314   27.179372   44.201439
  H    -22.927781   28.358860   42.597363
  H    -22.556380   28.170498   44.329723
  H    -20.679370   26.870494   43.572720
  H    -21.429328   26.546099   41.998318
  H    -24.025831   25.803739   41.815502

 Multiplicity           Mult            ....    1
 Number of Electrons    NEL             ....  102
 Basis Dimension        Dim             ....  149

ORBITAL ENERGIES
----------------

  NO   OCC          E(Eh)            E(eV)
   0   2.0000     -19.152692      -521.1713
   1   2.0000     -19.143713      -520.9269
   2   2.0000     -19.140887      -520.8500
   3   2.0000     -19.135881      -520.7138
   4   2.0000     -10.275305      -279.6053
   5   2.0000     -10.243588      -278.7422
   6   2.0000     -10.239203      -278.6229
   7   2.0000     -10.236248      -278.5425
   8   2.0000     -10.233909      -278.4788
   9   2.0000     -10.222534      -278.1693
  10   2.0000     -10.189712      -277.2762
  11   2.0000     -10.186817      -277.1974
  12   2.0000     -10.185172      -277.1526
  13   2.0000      -1.051656       -28.6170
  14   2.0000      -1.040307       -28.3082
  15   2.0000      -1.010476       -27.4965
  16   2.0000      -0.991925       -26.9916
  17   2.0000      -0.788978       -21.4692
  18   2.0000      -0.782593       -21.2955
  19   2.0000      -0.771287       -20.9878
  20   2.0000      -0.731638       -19.9089
  21   2.0000      -0.679729       -18.4964
  22   2.0000      -0.607513       -16.5313
  23   2.0000      -0.603233       -16.4148
  24   2.0000      -0.598052       -16.2738
  25   2.0000      -0.576372       -15.6839
  26   2.0000      -0.526843       -14.3361
  27   2.0000      -0.508792       -13.8449
  28   2.0000      -0.505597       -13.7580
  29   2.0000      -0.483620       -13.1600
  30   2.0000      -0.472087       -12.8461
  31   2.0000      -0.461999       -12.5716
  32   2.0000      -0.451814       -12.2945
  33   2.0000      -0.439722       -11.9654
  34   2.0000      -0.428218       -11.6524
  35   2.0000      -0.414270       -11.2729
  36   2.0000      -0.401644       -10.9293
  37   2.0000      -0.396052       -10.7771
  38   2.0000      -0.379111       -10.3161
  39   2.0000      -0.371975       -10.1219
  40   2.0000      -0.363334        -9.8868
  41   2.0000      -0.354376        -9.6431
  42   2.0000      -0.348216        -9.4754
  43   2.0000      -0.336749        -9.1634
  44   2.0000      -0.319819        -8.7027
  45   2.0000      -0.310989        -8.4624
  46   2.0000      -0.308116        -8.3843
  47   2.0000      -0.275472        -7.4960
  48   2.0000      -0.271345        -7.3837
  49   2.0000      -0.252617        -6.8741
  50   2.0000      -0.241701        -6.5770
  51   0.0000       0.059740         1.6256
  52   0.0000       0.082224         2.2374
  53   0.0000       0.084837         2.3085
  54   0.0000       0.098913         2.6916
  55   0.0000       0.103316         2.8114

MULLIKEN ATOMIC CHARGES
-----------------------
   0 C :    0.269910
   1 C :   -0.265408
   2 C :   -0.303985
   3 C :    0.001974
   4 O :   -0.507195
   5 H :    0.176995
   6 H :    0.145486
   7 H :    0.144795
   8 H :    0.140629
   9 H :    0.162666
  10 H :    0.149821
  11 H :    0.139657
  12 C :   -0.021620
  13 H :    0.152415
  14 H :    0.150380
  15 O :   -0.520877
  16 C :    0.069038
  17 C :    0.080912
  18 C :   -0.300331
  19 C :   -0.038551
  20 O :   -0.527841
  21 H :    0.158635
  22 O :   -0.601334
  23 H :    0.158980
  24 H :    0.159745
  25 H :    0.167045
  26 H :    0.146688
  27 H :    0.148107
  28 H :    0.363262
Sum of atomic charges:   -0.0000000

LOEWDIN ATOMIC CHARGES
----------------------
   0 C :    0.168104
   1 C :   -0.222373
   2 C :   -0.216649
   3 C :   -0.026184
   4 O :   -0.318184
   5 H :    0.115398
   6 H :    0.113387
   7 H :    0.114135
   8 H :    0.113257
   9 H :    0.119160
  10 H :    0.106713
  11 H :    0.101175
  12 C :   -0.039649
  13 H :    0.107789
  14 H :    0.117170
  15 O :   -0.336095
  16 C :    0.001070
  17 C :    0.038126
  18 C :   -0.241562
  19 C :   -0.039850
  20 O :   -0.332471
  21 H :    0.118048
  22 O :   -0.414764
  23 H :    0.119418
  24 H :    0.124853
  25 H :    0.122047
  26 H :    0.102649
  27 H :    0.103083
  28 H :    0.282200

  Mayer bond orders larger than 0.100000
B(  0-C ,  1-C ) :   0.9413 B(  0-C ,  4-O ) :   0.9129 B(  0-C ,  5-H ) :   0.9042
B(  0-C , 15-O ) :   0.8300 B(  1-C ,  2-C ) :   0.9524 B(  1-C ,  6-H ) :   0.9375
B(  1-C ,  7-H ) :   0.9282 B(  2-C ,  3-C ) :   0.9546 B(  2-C ,  8-H ) :   0.9453
B(  2-C ,  9-H ) :   0.9435 B(  3-C ,  4-O ) :   0.8393 B(  3-C , 10-H ) :   0.9351
B(  3-C , 11-H ) :   0.9401 B( 12-C , 13-H ) :   0.9203 B( 12-C , 14-H ) :   0.9306
B( 12-C , 15-O ) :   0.8800 B( 12-C , 16-C ) :   0.8859 B( 16-C , 17-C ) :   0.9058
B( 16-C , 20-O ) :   0.8544 B( 16-C , 21-H ) :   0.9146 B( 17-C , 18-C ) :   0.9192
B( 17-C , 22-O ) :   0.8929 B( 17-C , 23-H ) :   0.9343 B( 18-C , 19-C ) :   0.9461
B( 18-C , 24-H ) :   0.9359 B( 18-C , 25-H ) :   0.9154 B( 19-C , 20-O ) :   0.8384
B( 19-C , 26-H ) :   0.9235 B( 19-C , 27-H ) :   0.9376 B( 22-O , 28-H ) :   0.7962

FINAL SINGLE POINT ENERGY      -652.861554810846

DIPOLE MOMENT
-------------
                                X             Y             Z
Electronic contribution:     -2.70500      -4.77935      -1.37914
Nuclear contribution   :      3.19301       5.57913       1.27528
                        -----------------------------------------
Total Dipole Moment    :      0.48801       0.79977      -0.10386
                        -----------------------------------------
Magnitude (a.u.)       :      0.94264
Magnitude (Debye)      :      2.39600

Rotational constants in cm-1:     0.060181     0.014651     0.013839
Rotational constants in MHz :  1804.175030   439.213241   414.879384

                             ****ORCA TERMINATED NORMALLY****
TOTAL RUN TIME: 0 days 0 hours 19 minutes 51 seconds 831 msec
