                         Program Version 4.2.0 -  RELEASE  -
|  1> # Test redundant internal optimization
|  2> #
|  3> ! RKS B3LYP  Opt TightSCF SmallPrint
|  4>
|  5> %basis
|  6>         Basis "6-31G"
|  7> end
|  8>
|  9> %geom
| 10> Constraints
| 11> { D 4  0  15  12  330.0   C } # D for Dihedral angle
| 12> { D 0  15  12  16  90.0   C } # D for Dihedral angle
| 13> { D 0  4  3  2   C } # D for Dihedral angle
| 14> { D 4  3  2  1   C } # D for Dihedral angle
| 15> { D 3  2  1  0   C } # D for Dihedral angle
| 16> { D 2  1  0  4   C } # D for Dihedral angle
| 17> { D 1  0  4  3   C } # D for Dihedral angle
| 18> { D 16  20  19  18   C } # D for Dihedral angle
| 19> { D 20  19  18  17   C } # D for Dihedral angle
| 20> { D 19  18  17  16   C } # D for Dihedral angle
| 21> { D 18  17  16  20   C } # D for Dihedral angle
| 22> { D 17  16  20  19   C } # D for Dihedral angle
| 23> { D 15  12  16  20   C } # D for Dihedral angle
| 24> end
| 25> end
| 26>
| 27>
| 28> #%pal
| 29> #nprocs 8
| 30> #end
| 31>
| 32> * xyz 0 1
| 33> C  -21.048   26.222   46.251
| 34> C  -20.361   27.558   45.944
| 35> C  -20.329   28.222   47.341
| 36> C  -20.110   27.022   48.296
| 37> O  -20.473   25.807   47.535
| 38> H  -20.833   25.428   45.533
| 39> H  -19.344   27.382   45.576
| 40> H  -20.898   28.157   45.201
| 41> H  -19.543   28.978   47.434
| 42> H  -21.289   28.710   47.548
| 43> H  -20.733   27.082   49.195
| 44> H  -19.064   26.913   48.597
| 45> C  -23.271   25.476   47.424
| 46> H  -24.293   25.251   47.096
| 47> H  -22.725   24.528   47.520
| 48> O  -22.586   26.394   46.375
| 49> C  -23.342   26.124   48.834
| 50> C  -24.234   27.371   48.829
| 51> C  -25.648   26.746   48.875
| 52> C  -25.449   25.492   49.764
| 53> O  -23.997   25.217   49.783
| 54> H  -22.329   26.294   49.202
| 55> O  -23.968   28.221   50.101
| 56> H  -24.079   28.008   47.951
| 57> H  -26.401   27.429   49.281
| 58> H  -25.966   26.458   47.866
| 59> H  -25.975   24.614   49.374
| 60> H  -25.760   25.660   50.798
| 61> H  -24.117   27.604   50.995
| 62> *
| 63>
| 64>                          ****END OF INPUT****
 Total Charge           Charge          ....    0
 Multiplicity           Mult            ....    1
 Number of Electrons    NEL             ....  102
FINAL SINGLE POINT ENERGY      -652.838552965185
FINAL SINGLE POINT ENERGY      -652.860735668082
FINAL SINGLE POINT ENERGY      -652.864696154615
FINAL SINGLE POINT ENERGY      -652.865413760311
FINAL SINGLE POINT ENERGY      -652.865565524278
FINAL SINGLE POINT ENERGY      -652.865590289053
FINAL SINGLE POINT ENERGY      -652.865594206892
                    ***********************HURRAY********************

CARTESIAN COORDINATES (ANGSTROEM)
---------------------------------
  C    -21.084198   26.194212   46.365066
  C    -20.512288   27.564010   45.996967
  C    -20.391676   28.237089   47.383435
  C    -20.014078   27.066998   48.317380
  O    -20.381883   25.823707   47.572607
  H    -20.851290   25.396669   45.651053
  H    -19.528463   27.424825   45.535616
  H    -21.158941   28.109682   45.306561
  H    -19.642027   29.034304   47.399709
  H    -21.353169   28.669440   47.676464
  H    -20.543552   27.088381   49.272002
  H    -18.938851   26.999446   48.505349
  C    -23.220803   25.421487   47.435253
  H    -24.201200   25.231427   46.988628
  H    -22.699446   24.465762   47.556744
  O    -22.529563   26.279307   46.475267
  C    -23.361632   26.079484   48.807134
  C    -24.199090   27.365944   48.830021
  C    -25.640040   26.800605   48.848714
  C    -25.507085   25.514685   49.703719
  O    -24.062484   25.173452   49.726811
  H    -22.373375   26.239882   49.236379
  O    -23.899616   28.162626   50.011551
  H    -23.999476   28.016283   47.979534
  H    -26.337001   27.526426   49.276234
  H    -25.969029   26.570875   47.829684
  H    -26.067196   24.669429   49.291821
  H    -25.818928   25.665529   50.742105
  H    -23.878618   27.576033   50.797191

 Multiplicity           Mult            ....    1
 Number of Electrons    NEL             ....  102
 Basis Dimension        Dim             ....  149

ORBITAL ENERGIES
----------------

  NO   OCC          E(Eh)            E(eV)
   0   2.0000     -19.149614      -521.0875
   1   2.0000     -19.143805      -520.9294
   2   2.0000     -19.143106      -520.9104
   3   2.0000     -19.138442      -520.7835
   4   2.0000     -10.279371      -279.7159
   5   2.0000     -10.236515      -278.5497
   6   2.0000     -10.231077      -278.4017
   7   2.0000     -10.229211      -278.3510
   8   2.0000     -10.227937      -278.3163
   9   2.0000     -10.227257      -278.2978
  10   2.0000     -10.187970      -277.2288
  11   2.0000     -10.187350      -277.2119
  12   2.0000     -10.186440      -277.1871
  13   2.0000      -1.054050       -28.6822
  14   2.0000      -1.034760       -28.1573
  15   2.0000      -1.004993       -27.3472
  16   2.0000      -0.995035       -27.0763
  17   2.0000      -0.791099       -21.5269
  18   2.0000      -0.779340       -21.2069
  19   2.0000      -0.766674       -20.8623
  20   2.0000      -0.731451       -19.9038
  21   2.0000      -0.673899       -18.3377
  22   2.0000      -0.604298       -16.4438
  23   2.0000      -0.601790       -16.3755
  24   2.0000      -0.597635       -16.2625
  25   2.0000      -0.573958       -15.6182
  26   2.0000      -0.524357       -14.2685
  27   2.0000      -0.510736       -13.8978
  28   2.0000      -0.494279       -13.4500
  29   2.0000      -0.489788       -13.3278
  30   2.0000      -0.475467       -12.9381
  31   2.0000      -0.459615       -12.5068
  32   2.0000      -0.451714       -12.2918
  33   2.0000      -0.434246       -11.8164
  34   2.0000      -0.417473       -11.3600
  35   2.0000      -0.412332       -11.2201
  36   2.0000      -0.404089       -10.9958
  37   2.0000      -0.393150       -10.6981
  38   2.0000      -0.373947       -10.1756
  39   2.0000      -0.366260        -9.9665
  40   2.0000      -0.360023        -9.7967
  41   2.0000      -0.358562        -9.7570
  42   2.0000      -0.349570        -9.5123
  43   2.0000      -0.332204        -9.0397
  44   2.0000      -0.329710        -8.9719
  45   2.0000      -0.308965        -8.4074
  46   2.0000      -0.302580        -8.2336
  47   2.0000      -0.272636        -7.4188
  48   2.0000      -0.265414        -7.2223
  49   2.0000      -0.263720        -7.1762
  50   2.0000      -0.239303        -6.5118
  51   0.0000       0.062761         1.7078
  52   0.0000       0.079552         2.1647
  53   0.0000       0.091130         2.4798
  54   0.0000       0.096642         2.6298
  55   0.0000       0.105963         2.8834

MULLIKEN ATOMIC CHARGES
-----------------------
   0 C :    0.301543
   1 C :   -0.264025
   2 C :   -0.308795
   3 C :   -0.021506
   4 O :   -0.514298
   5 H :    0.151278
   6 H :    0.147380
   7 H :    0.160564
   8 H :    0.146705
   9 H :    0.169658
  10 H :    0.150694
  11 H :    0.150593
  12 C :   -0.019826
  13 H :    0.143504
  14 H :    0.164031
  15 O :   -0.535674
  16 C :    0.048973
  17 C :    0.087369
  18 C :   -0.305281
  19 C :   -0.030952
  20 O :   -0.525791
  21 H :    0.173816
  22 O :   -0.607625
  23 H :    0.169839
  24 H :    0.162198
  25 H :    0.150057
  26 H :    0.147260
  27 H :    0.145713
  28 H :    0.362599
Sum of atomic charges:   -0.0000000

LOEWDIN ATOMIC CHARGES
----------------------
   0 C :    0.178104
   1 C :   -0.215847
   2 C :   -0.218409
   3 C :   -0.033026
   4 O :   -0.325554
   5 H :    0.097679
   6 H :    0.115560
   7 H :    0.126096
   8 H :    0.117139
   9 H :    0.120775
  10 H :    0.103665
  11 H :    0.106653
  12 C :   -0.039455
  13 H :    0.106920
  14 H :    0.116256
  15 O :   -0.339141
  16 C :    0.004843
  17 C :    0.034416
  18 C :   -0.242303
  19 C :   -0.038966
  20 O :   -0.329282
  21 H :    0.118359
  22 O :   -0.418005
  23 H :    0.122648
  24 H :    0.126385
  25 H :    0.116286
  26 H :    0.104295
  27 H :    0.102031
  28 H :    0.281876

  Mayer bond orders larger than 0.100000
B(  0-C ,  1-C ) :   0.9421 B(  0-C ,  4-O ) :   0.9054 B(  0-C ,  5-H ) :   0.9256
B(  0-C , 15-O ) :   0.8479 B(  1-C ,  2-C ) :   0.9540 B(  1-C ,  6-H ) :   0.9377
B(  1-C ,  7-H ) :   0.9359 B(  2-C ,  3-C ) :   0.9555 B(  2-C ,  8-H ) :   0.9444
B(  2-C ,  9-H ) :   0.9396 B(  3-C ,  4-O ) :   0.8288 B(  3-C , 10-H ) :   0.9225
B(  3-C , 11-H ) :   0.9408 B( 12-C , 13-H ) :   0.9393 B( 12-C , 14-H ) :   0.9187
B( 12-C , 15-O ) :   0.8317 B( 12-C , 16-C ) :   0.8852 B( 16-C , 17-C ) :   0.9102
B( 16-C , 20-O ) :   0.8367 B( 16-C , 21-H ) :   0.9129 B( 17-C , 18-C ) :   0.9136
B( 17-C , 22-O ) :   0.8869 B( 17-C , 23-H ) :   0.9235 B( 18-C , 19-C ) :   0.9432
B( 18-C , 24-H ) :   0.9374 B( 18-C , 25-H ) :   0.9337 B( 19-C , 20-O ) :   0.8444
B( 19-C , 26-H ) :   0.9351 B( 19-C , 27-H ) :   0.9375 B( 22-O , 28-H ) :   0.7968

FINAL SINGLE POINT ENERGY      -652.865594752022

DIPOLE MOMENT
-------------
                                X             Y             Z
Electronic contribution:      0.21353      -2.76005       0.81395
Nuclear contribution   :     -0.39951       3.04931      -1.06521
                        -----------------------------------------
Total Dipole Moment    :     -0.18599       0.28927      -0.25125
                        -----------------------------------------
Magnitude (a.u.)       :      0.42590
Magnitude (Debye)      :      1.08256

Rotational constants in cm-1:     0.049253     0.016186     0.015002
Rotational constants in MHz :  1476.556611   485.241004   449.757948

                             ****ORCA TERMINATED NORMALLY****
TOTAL RUN TIME: 0 days 0 hours 33 minutes 50 seconds 524 msec
