                         Program Version 4.2.0 -  RELEASE  -
|  1> # Test redundant internal optimization
|  2> #
|  3> ! RKS B3LYP  Opt TightSCF SmallPrint
|  4>
|  5> %basis
|  6>         Basis "6-31G"
|  7> end
|  8>
|  9> %geom
| 10> Constraints
| 11> { D 4  0  15  12  165.0   C } # D for Dihedral angle
| 12> { D 0  15  12  16  75.0   C } # D for Dihedral angle
| 13> { D 0  4  3  2   C } # D for Dihedral angle
| 14> { D 4  3  2  1   C } # D for Dihedral angle
| 15> { D 3  2  1  0   C } # D for Dihedral angle
| 16> { D 2  1  0  4   C } # D for Dihedral angle
| 17> { D 1  0  4  3   C } # D for Dihedral angle
| 18> { D 16  20  19  18   C } # D for Dihedral angle
| 19> { D 20  19  18  17   C } # D for Dihedral angle
| 20> { D 19  18  17  16   C } # D for Dihedral angle
| 21> { D 18  17  16  20   C } # D for Dihedral angle
| 22> { D 17  16  20  19   C } # D for Dihedral angle
| 23> { D 15  12  16  20   C } # D for Dihedral angle
| 24> end
| 25> end
| 26>
| 27>
| 28> #%pal
| 29> #nprocs 8
| 30> #end
| 31>
| 32> * xyz 0 1
| 33> C  -21.048   26.222   46.251
| 34> C  -20.361   27.558   45.944
| 35> C  -20.329   28.222   47.341
| 36> C  -20.110   27.022   48.296
| 37> O  -20.473   25.807   47.535
| 38> H  -20.833   25.428   45.533
| 39> H  -19.344   27.382   45.576
| 40> H  -20.898   28.157   45.201
| 41> H  -19.543   28.978   47.434
| 42> H  -21.289   28.710   47.548
| 43> H  -20.733   27.082   49.195
| 44> H  -19.064   26.913   48.597
| 45> C  -23.260   27.170   45.210
| 46> H  -24.268   27.477   45.515
| 47> H  -22.685   28.074   44.968
| 48> O  -22.586   26.394   46.375
| 49> C  -23.378   26.323   43.913
| 50> C  -23.940   27.154   42.755
| 51> C  -22.691   27.950   42.305
| 52> C  -21.534   26.944   42.528
| 53> O  -22.050   25.908   43.449
| 54> H  -23.940   25.412   44.130
| 55> H  -24.288   26.495   41.951
| 56> O  -25.118   28.073   43.178
| 57> H  -22.755   28.289   41.266
| 58> H  -22.560   28.835   42.939
| 59> H  -20.651   27.413   42.975
| 60> H  -21.238   26.437   41.606
| 61> H  -24.794   28.744   43.981
| 62> *
| 63>
| 64>                          ****END OF INPUT****
 Total Charge           Charge          ....    0
 Multiplicity           Mult            ....    1
 Number of Electrons    NEL             ....  102
FINAL SINGLE POINT ENERGY      -652.824472274989
FINAL SINGLE POINT ENERGY      -652.848318835286
FINAL SINGLE POINT ENERGY      -652.853645610470
FINAL SINGLE POINT ENERGY      -652.854545242831
FINAL SINGLE POINT ENERGY      -652.854676303550
FINAL SINGLE POINT ENERGY      -652.854711883465
FINAL SINGLE POINT ENERGY      -652.854715471337
                    ***********************HURRAY********************

CARTESIAN COORDINATES (ANGSTROEM)
---------------------------------
  C    -20.989235   26.252642   46.224383
  C    -20.198048   27.543973   46.018172
  C    -20.290223   28.208244   47.416856
  C    -20.254110   26.992607   48.367671
  O    -20.599425   25.817054   47.533532
  H    -20.771971   25.451556   45.520266
  H    -19.161001   27.277450   45.783249
  H    -20.566222   28.182825   45.212031
  H    -19.470966   28.909299   47.603310
  H    -21.236616   28.749425   47.514983
  H    -20.973958   27.065847   49.186972
  H    -19.256832   26.805353   48.777269
  C    -23.132314   27.202898   45.259909
  H    -24.123417   27.405387   45.676911
  H    -22.637177   28.166724   45.065964
  O    -22.442834   26.460254   46.293569
  C    -23.291754   26.396612   43.968411
  C    -23.991392   27.142663   42.818971
  C    -22.811738   27.952988   42.201015
  C    -21.610985   26.995149   42.371290
  O    -22.002595   25.996238   43.400895
  H    -23.801096   25.462037   44.221016
  H    -24.378468   26.419684   42.098049
  O    -25.144446   27.929698   43.200117
  H    -22.995331   28.222866   41.158152
  H    -22.668831   28.881286   42.769665
  H    -20.699773   27.506264   42.697448
  H    -21.392322   26.438671   41.455678
  H    -24.867923   28.737308   43.679245

 Multiplicity           Mult            ....    1
 Number of Electrons    NEL             ....  102
 Basis Dimension        Dim             ....  149

ORBITAL ENERGIES
----------------

  NO   OCC          E(Eh)            E(eV)
   0   2.0000     -19.154615      -521.2236
   1   2.0000     -19.148466      -521.0562
   2   2.0000     -19.133419      -520.6468
   3   2.0000     -19.132601      -520.6246
   4   2.0000     -10.268521      -279.4207
   5   2.0000     -10.250735      -278.9367
   6   2.0000     -10.239158      -278.6216
   7   2.0000     -10.233190      -278.4593
   8   2.0000     -10.232376      -278.4371
   9   2.0000     -10.220485      -278.1135
  10   2.0000     -10.202339      -277.6198
  11   2.0000     -10.186131      -277.1787
  12   2.0000     -10.185997      -277.1751
  13   2.0000      -1.047085       -28.4926
  14   2.0000      -1.038317       -28.2540
  15   2.0000      -1.022776       -27.8312
  16   2.0000      -0.985470       -26.8160
  17   2.0000      -0.789366       -21.4797
  18   2.0000      -0.783445       -21.3186
  19   2.0000      -0.769819       -20.9479
  20   2.0000      -0.730351       -19.8739
  21   2.0000      -0.685052       -18.6412
  22   2.0000      -0.618754       -16.8372
  23   2.0000      -0.601427       -16.3657
  24   2.0000      -0.593658       -16.1543
  25   2.0000      -0.566883       -15.4257
  26   2.0000      -0.534205       -14.5364
  27   2.0000      -0.512469       -13.9450
  28   2.0000      -0.501006       -13.6331
  29   2.0000      -0.488457       -13.2916
  30   2.0000      -0.471050       -12.8179
  31   2.0000      -0.458776       -12.4839
  32   2.0000      -0.448681       -12.2092
  33   2.0000      -0.439395       -11.9566
  34   2.0000      -0.429635       -11.6910
  35   2.0000      -0.423188       -11.5155
  36   2.0000      -0.403065       -10.9679
  37   2.0000      -0.401579       -10.9275
  38   2.0000      -0.386434       -10.5154
  39   2.0000      -0.373804       -10.1717
  40   2.0000      -0.360843        -9.8190
  41   2.0000      -0.353034        -9.6065
  42   2.0000      -0.351177        -9.5560
  43   2.0000      -0.336286        -9.1508
  44   2.0000      -0.322570        -8.7776
  45   2.0000      -0.306967        -8.3530
  46   2.0000      -0.293548        -7.9879
  47   2.0000      -0.276730        -7.5302
  48   2.0000      -0.269368        -7.3299
  49   2.0000      -0.250333        -6.8119
  50   2.0000      -0.235790        -6.4162
  51   0.0000       0.043922         1.1952
  52   0.0000       0.058413         1.5895
  53   0.0000       0.085215         2.3188
  54   0.0000       0.096594         2.6284
  55   0.0000       0.098352         2.6763

MULLIKEN ATOMIC CHARGES
-----------------------
   0 C :    0.313134
   1 C :   -0.294156
   2 C :   -0.299686
   3 C :    0.002660
   4 O :   -0.500062
   5 H :    0.176584
   6 H :    0.151304
   7 H :    0.134689
   8 H :    0.139953
   9 H :    0.151660
  10 H :    0.151687
  11 H :    0.139857
  12 C :   -0.030853
  13 H :    0.160130
  14 H :    0.104324
  15 O :   -0.512406
  16 C :    0.090157
  17 C :    0.084890
  18 C :   -0.321863
  19 C :   -0.012168
  20 O :   -0.519134
  21 H :    0.170221
  22 H :    0.172231
  23 O :   -0.597683
  24 H :    0.160117
  25 H :    0.131762
  26 H :    0.141334
  27 H :    0.154743
  28 H :    0.356575
Sum of atomic charges:   -0.0000000

LOEWDIN ATOMIC CHARGES
----------------------
   0 C :    0.183479
   1 C :   -0.232584
   2 C :   -0.218712
   3 C :   -0.025725
   4 O :   -0.302808
   5 H :    0.114543
   6 H :    0.118763
   7 H :    0.107409
   8 H :    0.112856
   9 H :    0.112540
  10 H :    0.107959
  11 H :    0.101425
  12 C :   -0.052761
  13 H :    0.119362
  14 H :    0.079225
  15 O :   -0.327832
  16 C :    0.008078
  17 C :    0.035804
  18 C :   -0.241049
  19 C :   -0.031127
  20 O :   -0.322238
  21 H :    0.121999
  22 H :    0.121412
  23 O :   -0.404983
  24 H :    0.124395
  25 H :    0.103248
  26 H :    0.100244
  27 H :    0.108695
  28 H :    0.278381

  Mayer bond orders larger than 0.100000
B(  0-C ,  1-C ) :   0.9315 B(  0-C ,  4-O ) :   0.9215 B(  0-C ,  5-H ) :   0.9132
B(  0-C , 15-O ) :   0.8196 B(  1-C ,  2-C ) :   0.9477 B(  1-C ,  6-H ) :   0.9352
B(  1-C ,  7-H ) :   0.9286 B(  2-C ,  3-C ) :   0.9554 B(  2-C ,  8-H ) :   0.9454
B(  2-C ,  9-H ) :   0.9462 B(  3-C ,  4-O ) :   0.8412 B(  3-C , 10-H ) :   0.9346
B(  3-C , 11-H ) :   0.9400 B( 12-C , 13-H ) :   0.9218 B( 12-C , 14-H ) :   0.9119
B( 12-C , 15-O ) :   0.8842 B( 12-C , 16-C ) :   0.8893 B( 16-C , 17-C ) :   0.8694
B( 16-C , 20-O ) :   0.8500 B( 16-C , 21-H ) :   0.9278 B( 17-C , 18-C ) :   0.9218
B( 17-C , 22-H ) :   0.9315 B( 17-C , 23-O ) :   0.9022 B( 18-C , 19-C ) :   0.9403
B( 18-C , 24-H ) :   0.9415 B( 18-C , 25-H ) :   0.9407 B( 19-C , 20-O ) :   0.8426
B( 19-C , 26-H ) :   0.9289 B( 19-C , 27-H ) :   0.9373 B( 23-O , 28-H ) :   0.7981

FINAL SINGLE POINT ENERGY      -652.854715956244

DIPOLE MOMENT
-------------
                                X             Y             Z
Electronic contribution:     -3.32593      -5.46110       0.72564
Nuclear contribution   :      3.96743       7.23901      -1.55691
                        -----------------------------------------
Total Dipole Moment    :      0.64150       1.77790      -0.83128
                        -----------------------------------------
Magnitude (a.u.)       :      2.06482
Magnitude (Debye)      :      5.24836

Rotational constants in cm-1:     0.055470     0.014031     0.013283
Rotational constants in MHz :  1662.960958   420.629455   398.221277

                             ****ORCA TERMINATED NORMALLY****
TOTAL RUN TIME: 0 days 0 hours 30 minutes 40 seconds 892 msec
