                         Program Version 4.2.0 -  RELEASE  -
|  1> # Test redundant internal optimization
|  2> #
|  3> ! RKS B3LYP  Opt TightSCF SmallPrint
|  4>
|  5> %basis
|  6>         Basis "6-31G"
|  7> end
|  8>
|  9> %geom
| 10> Constraints
| 11> { D 4  0  15  12  135.0   C } # D for Dihedral angle
| 12> { D 0  15  12  16  120.0   C } # D for Dihedral angle
| 13> { D 0  4  3  2   C } # D for Dihedral angle
| 14> { D 4  3  2  1   C } # D for Dihedral angle
| 15> { D 3  2  1  0   C } # D for Dihedral angle
| 16> { D 2  1  0  4   C } # D for Dihedral angle
| 17> { D 1  0  4  3   C } # D for Dihedral angle
| 18> { D 16  20  19  18   C } # D for Dihedral angle
| 19> { D 20  19  18  17   C } # D for Dihedral angle
| 20> { D 19  18  17  16   C } # D for Dihedral angle
| 21> { D 18  17  16  20   C } # D for Dihedral angle
| 22> { D 17  16  20  19   C } # D for Dihedral angle
| 23> { D 15  12  16  20   C } # D for Dihedral angle
| 24> end
| 25> end
| 26>
| 27>
| 28> #%pal
| 29> #nprocs 8
| 30> #end
| 31>
| 32> * xyz 0 1
| 33> C  -21.048   26.222   46.251
| 34> C  -20.361   27.558   45.944
| 35> C  -20.329   28.222   47.341
| 36> C  -20.110   27.022   48.296
| 37> O  -20.473   25.807   47.535
| 38> H  -20.833   25.428   45.533
| 39> H  -19.344   27.382   45.576
| 40> H  -20.898   28.157   45.201
| 41> H  -19.543   28.978   47.434
| 42> H  -21.289   28.710   47.548
| 43> H  -20.733   27.082   49.195
| 44> H  -19.064   26.913   48.597
| 45> C  -23.162   27.680   45.721
| 46> H  -23.653   28.289   46.490
| 47> H  -22.356   28.277   45.273
| 48> O  -22.586   26.394   46.375
| 49> C  -24.198   27.373   44.604
| 50> C  -25.444   26.686   45.176
| 51> C  -26.216   27.884   45.777
| 52> C  -25.902   29.036   44.788
| 53> O  -24.708   28.619   44.023
| 54> H  -23.706   26.822   43.801
| 55> H  -26.020   26.221   44.367
| 56> O  -25.110   25.594   46.229
| 57> H  -27.289   27.694   45.869
| 58> H  -25.829   28.117   46.776
| 59> H  -25.689   29.980   45.299
| 60> H  -26.708   29.197   44.067
| 61> H  -24.532   26.038   47.048
| 62> *
| 63>
| 64>                          ****END OF INPUT****
 Total Charge           Charge          ....    0
 Multiplicity           Mult            ....    1
 Number of Electrons    NEL             ....  102
FINAL SINGLE POINT ENERGY      -652.815365469138
FINAL SINGLE POINT ENERGY      -652.841255167564
FINAL SINGLE POINT ENERGY      -652.852163788299
FINAL SINGLE POINT ENERGY      -652.855369360703
FINAL SINGLE POINT ENERGY      -652.857148437990
FINAL SINGLE POINT ENERGY      -652.858179468722
FINAL SINGLE POINT ENERGY      -652.858697912394
FINAL SINGLE POINT ENERGY      -652.858832018175
FINAL SINGLE POINT ENERGY      -652.858854686094
                    ***********************HURRAY********************

CARTESIAN COORDINATES (ANGSTROEM)
---------------------------------
  C    -21.161554   26.324622   46.264099
  C    -20.198463   27.469568   45.952195
  C    -20.119120   28.205352   47.314391
  C    -20.215521   27.047713   48.331137
  O    -20.775826   25.896529   47.577255
  H    -21.076653   25.452103   45.614792
  H    -19.228861   27.027129   45.698187
  H    -20.492171   28.113371   45.120489
  H    -19.194340   28.779556   47.421512
  H    -20.960847   28.897771   47.425582
  H    -20.873858   27.267246   49.175155
  H    -19.238999   26.729327   48.705807
  C    -23.171641   27.885607   45.710503
  H    -23.628921   28.465218   46.520018
  H    -22.425845   28.513681   45.217167
  O    -22.582925   26.684734   46.307958
  C    -24.215583   27.450427   44.675429
  C    -25.410782   26.671191   45.252256
  C    -26.290220   27.820081   45.824302
  C    -26.064218   28.969294   44.820781
  O    -24.817164   28.634347   44.065802
  H    -23.715500   26.899509   43.873057
  H    -25.942464   26.188589   44.424164
  O    -25.096026   25.650534   46.216780
  H    -27.340014   27.524718   45.901338
  H    -25.939722   28.071523   46.830659
  H    -25.931507   29.944782   45.298535
  H    -26.863736   29.045939   44.078154
  H    -24.160518   25.751538   46.516496

 Multiplicity           Mult            ....    1
 Number of Electrons    NEL             ....  102
 Basis Dimension        Dim             ....  149

ORBITAL ENERGIES
----------------

  NO   OCC          E(Eh)            E(eV)
   0   2.0000     -19.159487      -521.3562
   1   2.0000     -19.150196      -521.1033
   2   2.0000     -19.140939      -520.8514
   3   2.0000     -19.108286      -519.9629
   4   2.0000     -10.295287      -280.1490
   5   2.0000     -10.241703      -278.6909
   6   2.0000     -10.235524      -278.5228
   7   2.0000     -10.233402      -278.4650
   8   2.0000     -10.228151      -278.3221
   9   2.0000     -10.226526      -278.2779
  10   2.0000     -10.204244      -277.6716
  11   2.0000     -10.201702      -277.6024
  12   2.0000     -10.177480      -276.9433
  13   2.0000      -1.063612       -28.9424
  14   2.0000      -1.025157       -27.8959
  15   2.0000      -1.005729       -27.3673
  16   2.0000      -0.987908       -26.8823
  17   2.0000      -0.800850       -21.7922
  18   2.0000      -0.776391       -21.1267
  19   2.0000      -0.767406       -20.8822
  20   2.0000      -0.740065       -20.1382
  21   2.0000      -0.684628       -18.6297
  22   2.0000      -0.613852       -16.7038
  23   2.0000      -0.601950       -16.3799
  24   2.0000      -0.595429       -16.2024
  25   2.0000      -0.575310       -15.6550
  26   2.0000      -0.534806       -14.5528
  27   2.0000      -0.516905       -14.0657
  28   2.0000      -0.509827       -13.8731
  29   2.0000      -0.487968       -13.2783
  30   2.0000      -0.476999       -12.9798
  31   2.0000      -0.463507       -12.6127
  32   2.0000      -0.443573       -12.0702
  33   2.0000      -0.434727       -11.8295
  34   2.0000      -0.426839       -11.6149
  35   2.0000      -0.423117       -11.5136
  36   2.0000      -0.410171       -11.1613
  37   2.0000      -0.391199       -10.6451
  38   2.0000      -0.386504       -10.5173
  39   2.0000      -0.373117       -10.1530
  40   2.0000      -0.366601        -9.9757
  41   2.0000      -0.363861        -9.9012
  42   2.0000      -0.346495        -9.4286
  43   2.0000      -0.341687        -9.2978
  44   2.0000      -0.322592        -8.7782
  45   2.0000      -0.312560        -8.5052
  46   2.0000      -0.284585        -7.7440
  47   2.0000      -0.279001        -7.5920
  48   2.0000      -0.269758        -7.3405
  49   2.0000      -0.244933        -6.6650
  50   2.0000      -0.238025        -6.4770
  51   0.0000       0.056550         1.5388
  52   0.0000       0.071515         1.9460
  53   0.0000       0.091678         2.4947
  54   0.0000       0.097687         2.6582
  55   0.0000       0.100649         2.7388

MULLIKEN ATOMIC CHARGES
-----------------------
   0 C :    0.329240
   1 C :   -0.306051
   2 C :   -0.306345
   3 C :   -0.003832
   4 O :   -0.492089
   5 H :    0.163635
   6 H :    0.161970
   7 H :    0.153998
   8 H :    0.150402
   9 H :    0.156372
  10 H :    0.155797
  11 H :    0.149660
  12 C :   -0.025214
  13 H :    0.152459
  14 H :    0.153285
  15 O :   -0.572357
  16 C :    0.061228
  17 C :    0.121588
  18 C :   -0.301741
  19 C :   -0.021437
  20 O :   -0.524581
  21 H :    0.149714
  22 H :    0.145487
  23 O :   -0.641290
  24 H :    0.152751
  25 H :    0.145571
  26 H :    0.139412
  27 H :    0.150463
  28 H :    0.401904
Sum of atomic charges:    0.0000000

LOEWDIN ATOMIC CHARGES
----------------------
   0 C :    0.187609
   1 C :   -0.231286
   2 C :   -0.218423
   3 C :   -0.027074
   4 O :   -0.304883
   5 H :    0.109620
   6 H :    0.125438
   7 H :    0.118220
   8 H :    0.118951
   9 H :    0.113514
  10 H :    0.110086
  11 H :    0.106857
  12 C :   -0.045680
  13 H :    0.106014
  14 H :    0.109556
  15 O :   -0.347259
  16 C :    0.012638
  17 C :    0.042191
  18 C :   -0.237288
  19 C :   -0.032816
  20 O :   -0.327929
  21 H :    0.110622
  22 H :    0.104168
  23 O :   -0.435065
  24 H :    0.121893
  25 H :    0.111568
  26 H :    0.100784
  27 H :    0.106528
  28 H :    0.291444

  Mayer bond orders larger than 0.100000
B(  0-C ,  1-C ) :   0.9396 B(  0-C ,  4-O ) :   0.9414 B(  0-C ,  5-H ) :   0.9280
B(  0-C , 15-O ) :   0.8024 B(  1-C ,  2-C ) :   0.9482 B(  1-C ,  6-H ) :   0.9320
B(  1-C ,  7-H ) :   0.9244 B(  2-C ,  3-C ) :   0.9516 B(  2-C ,  8-H ) :   0.9449
B(  2-C ,  9-H ) :   0.9438 B(  3-C ,  4-O ) :   0.8345 B(  3-C , 10-H ) :   0.9342
B(  3-C , 11-H ) :   0.9391 B( 12-C , 13-H ) :   0.9291 B( 12-C , 14-H ) :   0.9138
B( 12-C , 15-O ) :   0.7900 B( 12-C , 16-C ) :   0.8902 B( 16-C , 17-C ) :   0.9142
B( 16-C , 20-O ) :   0.8518 B( 16-C , 21-H ) :   0.9317 B( 17-C , 18-C ) :   0.9011
B( 17-C , 22-H ) :   0.9303 B( 17-C , 23-O ) :   0.9403 B( 18-C , 19-C ) :   0.9393
B( 18-C , 24-H ) :   0.9439 B( 18-C , 25-H ) :   0.9431 B( 19-C , 20-O ) :   0.8322
B( 19-C , 26-H ) :   0.9351 B( 19-C , 27-H ) :   0.9381 B( 23-O , 28-H ) :   0.7185

FINAL SINGLE POINT ENERGY      -652.858857581266

DIPOLE MOMENT
-------------
                                X             Y             Z
Electronic contribution:     -1.20001      -4.56802      -1.20122
Nuclear contribution   :      2.30895       5.92847       1.20957
                        -----------------------------------------
Total Dipole Moment    :      1.10894       1.36045       0.00835
                        -----------------------------------------
Magnitude (a.u.)       :      1.75518
Magnitude (Debye)      :      4.46131

Rotational constants in cm-1:     0.055449     0.013539     0.012275
Rotational constants in MHz :  1662.333070   405.894794   367.999654

                             ****ORCA TERMINATED NORMALLY****
TOTAL RUN TIME: 0 days 0 hours 40 minutes 47 seconds 353 msec
