                         Program Version 4.2.0 -  RELEASE  -
|  1> # Test redundant internal optimization
|  2> #
|  3> ! RKS B3LYP  Opt TightSCF SmallPrint
|  4>
|  5> %basis
|  6>         Basis "6-31G"
|  7> end
|  8>
|  9> %geom
| 10> Constraints
| 11> { D 4  0  15  12  165.0   C } # D for Dihedral angle
| 12> { D 0  15  12  16  45.0   C } # D for Dihedral angle
| 13> { D 0  4  3  2   C } # D for Dihedral angle
| 14> { D 4  3  2  1   C } # D for Dihedral angle
| 15> { D 3  2  1  0   C } # D for Dihedral angle
| 16> { D 2  1  0  4   C } # D for Dihedral angle
| 17> { D 1  0  4  3   C } # D for Dihedral angle
| 18> { D 16  20  19  18   C } # D for Dihedral angle
| 19> { D 20  19  18  17   C } # D for Dihedral angle
| 20> { D 19  18  17  16   C } # D for Dihedral angle
| 21> { D 18  17  16  20   C } # D for Dihedral angle
| 22> { D 17  16  20  19   C } # D for Dihedral angle
| 23> { D 15  12  16  20   C } # D for Dihedral angle
| 24> end
| 25> end
| 26>
| 27>
| 28> #%pal
| 29> #nprocs 8
| 30> #end
| 31>
| 32> * xyz 0 1
| 33> C  -21.048   26.222   46.251
| 34> C  -20.361   27.558   45.944
| 35> C  -20.329   28.222   47.341
| 36> C  -20.110   27.022   48.296
| 37> O  -20.473   25.807   47.535
| 38> H  -20.833   25.428   45.533
| 39> H  -19.344   27.382   45.576
| 40> H  -20.898   28.157   45.201
| 41> H  -19.543   28.978   47.434
| 42> H  -21.289   28.710   47.548
| 43> H  -20.733   27.082   49.195
| 44> H  -19.064   26.913   48.597
| 45> C  -23.260   27.170   45.210
| 46> H  -24.345   27.016   45.253
| 47> H  -23.063   28.246   45.301
| 48> O  -22.586   26.394   46.375
| 49> C  -22.755   26.714   43.813
| 50> C  -23.353   27.577   42.697
| 51> C  -22.469   28.844   42.772
| 52> C  -21.077   28.280   43.154
| 53> O  -21.308   26.924   43.697
| 54> H  -22.933   25.642   43.701
| 55> H  -23.231   27.078   41.728
| 56> O  -24.862   27.882   42.903
| 57> H  -22.448   29.404   41.832
| 58> H  -22.841   29.516   43.555
| 59> H  -20.572   28.888   43.913
| 60> H  -20.418   28.173   42.288
| 61> H  -25.009   28.383   43.866
| 62> *
| 63>
| 64>                          ****END OF INPUT****
 Total Charge           Charge          ....    0
 Multiplicity           Mult            ....    1
 Number of Electrons    NEL             ....  102
FINAL SINGLE POINT ENERGY      -652.801070705243
FINAL SINGLE POINT ENERGY      -652.830574788964
FINAL SINGLE POINT ENERGY      -652.846424320962
FINAL SINGLE POINT ENERGY      -652.848840486024
FINAL SINGLE POINT ENERGY      -652.849236871565
FINAL SINGLE POINT ENERGY      -652.849322841133
FINAL SINGLE POINT ENERGY      -652.849331057713
FINAL SINGLE POINT ENERGY      -652.849331048328
                    ***********************HURRAY********************

CARTESIAN COORDINATES (ANGSTROEM)
---------------------------------
  C    -20.911351   26.201227   46.304592
  C    -20.096648   27.482831   46.127402
  C    -20.280320   28.180121   47.502929
  C    -20.320417   26.982454   48.476127
  O    -20.616055   25.794339   47.646510
  H    -20.657228   25.380933   45.633724
  H    -19.047031   27.209710   45.966034
  H    -20.415916   28.092640   45.287625
  H    -19.469568   28.878432   47.732009
  H    -21.227042   28.729441   47.524116
  H    -21.094199   27.075179   49.243093
  H    -19.355227   26.796821   48.958007
  C    -23.062884   27.151676   45.241297
  H    -24.113728   26.887658   45.389715
  H    -22.954066   28.238153   45.409547
  O    -22.360532   26.435381   46.287799
  C    -22.697006   26.811938   43.786662
  C    -23.501482   27.609387   42.744139
  C    -22.639951   28.901742   42.594206
  C    -21.199136   28.370920   42.755936
  O    -21.306088   27.035204   43.406034
  H    -22.851943   25.734841   43.656729
  H    -23.521347   27.055708   41.803400
  O    -24.894105   27.832573   43.062548
  H    -22.804079   29.398837   41.634592
  H    -22.898787   29.609540   43.392595
  H    -20.571405   29.021385   43.373846
  H    -20.702002   28.212230   41.795226
  H    -24.985454   28.500702   43.772562

 Multiplicity           Mult            ....    1
 Number of Electrons    NEL             ....  102
 Basis Dimension        Dim             ....  149

ORBITAL ENERGIES
----------------

  NO   OCC          E(Eh)            E(eV)
   0   2.0000     -19.157004      -521.2886
   1   2.0000     -19.153850      -521.2028
   2   2.0000     -19.130870      -520.5774
   3   2.0000     -19.130205      -520.5594
   4   2.0000     -10.270044      -279.4621
   5   2.0000     -10.253718      -279.0179
   6   2.0000     -10.242840      -278.7218
   7   2.0000     -10.238915      -278.6150
   8   2.0000     -10.234708      -278.5006
   9   2.0000     -10.218233      -278.0523
  10   2.0000     -10.204741      -277.6851
  11   2.0000     -10.181603      -277.0555
  12   2.0000     -10.175908      -276.9005
  13   2.0000      -1.047185       -28.4953
  14   2.0000      -1.040492       -28.3132
  15   2.0000      -1.026927       -27.9441
  16   2.0000      -0.982823       -26.7440
  17   2.0000      -0.792239       -21.5579
  18   2.0000      -0.778267       -21.1777
  19   2.0000      -0.772058       -21.0088
  20   2.0000      -0.730435       -19.8762
  21   2.0000      -0.685139       -18.6436
  22   2.0000      -0.621986       -16.9251
  23   2.0000      -0.603466       -16.4211
  24   2.0000      -0.592311       -16.1176
  25   2.0000      -0.562614       -15.3095
  26   2.0000      -0.535219       -14.5641
  27   2.0000      -0.517686       -14.0870
  28   2.0000      -0.498622       -13.5682
  29   2.0000      -0.480933       -13.0869
  30   2.0000      -0.473482       -12.8841
  31   2.0000      -0.458961       -12.4890
  32   2.0000      -0.448055       -12.1922
  33   2.0000      -0.439335       -11.9549
  34   2.0000      -0.430441       -11.7129
  35   2.0000      -0.426668       -11.6102
  36   2.0000      -0.406688       -11.0665
  37   2.0000      -0.399344       -10.8667
  38   2.0000      -0.389433       -10.5970
  39   2.0000      -0.368822       -10.0362
  40   2.0000      -0.360254        -9.8030
  41   2.0000      -0.352022        -9.5790
  42   2.0000      -0.345997        -9.4150
  43   2.0000      -0.339935        -9.2501
  44   2.0000      -0.324665        -8.8346
  45   2.0000      -0.305195        -8.3048
  46   2.0000      -0.294067        -8.0020
  47   2.0000      -0.280325        -7.6280
  48   2.0000      -0.259326        -7.0566
  49   2.0000      -0.248351        -6.7580
  50   2.0000      -0.240319        -6.5394
  51   0.0000       0.043782         1.1914
  52   0.0000       0.061960         1.6860
  53   0.0000       0.081837         2.2269
  54   0.0000       0.094039         2.5589
  55   0.0000       0.100126         2.7246

MULLIKEN ATOMIC CHARGES
-----------------------
   0 C :    0.317390
   1 C :   -0.275422
   2 C :   -0.305865
   3 C :    0.003980
   4 O :   -0.500638
   5 H :    0.157220
   6 H :    0.144738
   7 H :    0.152012
   8 H :    0.137506
   9 H :    0.147874
  10 H :    0.149689
  11 H :    0.139496
  12 C :   -0.008155
  13 H :    0.165690
  14 H :    0.103389
  15 O :   -0.529074
  16 C :    0.070555
  17 C :    0.087064
  18 C :   -0.316622
  19 C :   -0.025071
  20 O :   -0.516791
  21 H :    0.167369
  22 H :    0.170685
  23 O :   -0.595924
  24 H :    0.161273
  25 H :    0.136578
  26 H :    0.143471
  27 H :    0.159065
  28 H :    0.358519
Sum of atomic charges:   -0.0000000

LOEWDIN ATOMIC CHARGES
----------------------
   0 C :    0.191705
   1 C :   -0.229174
   2 C :   -0.221460
   3 C :   -0.025819
   4 O :   -0.302661
   5 H :    0.107011
   6 H :    0.116780
   7 H :    0.117443
   8 H :    0.111829
   9 H :    0.110258
  10 H :    0.106576
  11 H :    0.100945
  12 C :   -0.050010
  13 H :    0.123956
  14 H :    0.077038
  15 O :   -0.338231
  16 C :    0.002662
  17 C :    0.038150
  18 C :   -0.239982
  19 C :   -0.033558
  20 O :   -0.320689
  21 H :    0.118245
  22 H :    0.120915
  23 O :   -0.402988
  24 H :    0.124923
  25 H :    0.105642
  26 H :    0.099932
  27 H :    0.110610
  28 H :    0.279952

  Mayer bond orders larger than 0.100000
B(  0-C ,  1-C ) :   0.9360 B(  0-C ,  4-O ) :   0.9275 B(  0-C ,  5-H ) :   0.9233
B(  0-C , 15-O ) :   0.8147 B(  1-C ,  2-C ) :   0.9432 B(  1-C ,  6-H ) :   0.9373
B(  1-C ,  7-H ) :   0.9193 B(  2-C ,  3-C ) :   0.9539 B(  2-C ,  8-H ) :   0.9454
B(  2-C ,  9-H ) :   0.9468 B(  3-C ,  4-O ) :   0.8380 B(  3-C , 10-H ) :   0.9355
B(  3-C , 11-H ) :   0.9400 B( 12-C , 13-H ) :   0.9158 B( 12-C , 14-H ) :   0.9160
B( 12-C , 15-O ) :   0.8683 B( 12-C , 16-C ) :   0.8937 B( 16-C , 17-C ) :   0.8688
B( 16-C , 20-O ) :   0.8509 B( 16-C , 21-H ) :   0.9271 B( 17-C , 18-C ) :   0.9213
B( 17-C , 22-H ) :   0.9329 B( 17-C , 23-O ) :   0.9057 B( 18-C , 19-C ) :   0.9409
B( 18-C , 24-H ) :   0.9413 B( 18-C , 25-H ) :   0.9405 B( 19-C , 20-O ) :   0.8384
B( 19-C , 26-H ) :   0.9225 B( 19-C , 27-H ) :   0.9380 B( 23-O , 28-H ) :   0.7967

FINAL SINGLE POINT ENERGY      -652.849319418665

DIPOLE MOMENT
-------------
                                X             Y             Z
Electronic contribution:     -2.54923      -5.78095      -0.14023
Nuclear contribution   :      2.89654       7.62502      -0.53179
                        -----------------------------------------
Total Dipole Moment    :      0.34731       1.84407      -0.67202
                        -----------------------------------------
Magnitude (a.u.)       :      1.99320
Magnitude (Debye)      :      5.06631

Rotational constants in cm-1:     0.054920     0.014683     0.013366
Rotational constants in MHz :  1646.467812   440.178246   400.699768

                             ****ORCA TERMINATED NORMALLY****
TOTAL RUN TIME: 0 days 0 hours 30 minutes 44 seconds 912 msec
