                         Program Version 4.2.0 -  RELEASE  -
|  1> # Test redundant internal optimization
|  2> #
|  3> ! RKS B3LYP  Opt TightSCF SmallPrint
|  4>
|  5> %basis
|  6>         Basis "6-31G"
|  7> end
|  8>
|  9> %geom
| 10> Constraints
| 11> { D 4  0  15  12  180.0   C } # D for Dihedral angle
| 12> { D 0  15  12  16  75.0   C } # D for Dihedral angle
| 13> { D 0  4  3  2   C } # D for Dihedral angle
| 14> { D 4  3  2  1   C } # D for Dihedral angle
| 15> { D 3  2  1  0   C } # D for Dihedral angle
| 16> { D 2  1  0  4   C } # D for Dihedral angle
| 17> { D 1  0  4  3   C } # D for Dihedral angle
| 18> { D 16  20  19  18   C } # D for Dihedral angle
| 19> { D 20  19  18  17   C } # D for Dihedral angle
| 20> { D 19  18  17  16   C } # D for Dihedral angle
| 21> { D 18  17  16  20   C } # D for Dihedral angle
| 22> { D 17  16  20  19   C } # D for Dihedral angle
| 23> { D 15  12  16  20   C } # D for Dihedral angle
| 24> end
| 25> end
| 26>
| 27>
| 28> #%pal
| 29> #nprocs 8
| 30> #end
| 31>
| 32> * xyz 0 1
| 33> C  -21.048   26.222   46.251
| 34> C  -20.361   27.558   45.944
| 35> C  -20.329   28.222   47.341
| 36> C  -20.110   27.022   48.296
| 37> O  -20.473   25.807   47.535
| 38> H  -20.833   25.428   45.533
| 39> H  -19.344   27.382   45.576
| 40> H  -20.898   28.157   45.201
| 41> H  -19.543   28.978   47.434
| 42> H  -21.289   28.710   47.548
| 43> H  -20.733   27.082   49.195
| 44> H  -19.064   26.913   48.597
| 45> C  -23.309   26.834   45.072
| 46> H  -24.316   27.191   45.320
| 47> H  -22.763   27.654   44.589
| 48> O  -22.586   26.394   46.375
| 49> C  -23.440   25.680   44.040
| 50> C  -24.051   26.176   42.725
| 51> C  -22.835   26.851   42.048
| 52> C  -21.648   25.956   42.485
| 53> O  -22.114   25.183   43.656
| 54> H  -23.974   24.846   44.500
| 55> O  -24.551   24.972   41.881
| 56> H  -24.890   26.865   42.874
| 57> H  -22.934   26.911   40.959
| 58> H  -22.709   27.871   42.429
| 59> H  -20.765   26.539   42.769
| 60> H  -21.364   25.234   41.714
| 61> H  -23.726   24.269   41.719
| 62> *
| 63>
| 64>                          ****END OF INPUT****
 Total Charge           Charge          ....    0
 Multiplicity           Mult            ....    1
 Number of Electrons    NEL             ....  102
FINAL SINGLE POINT ENERGY      -652.832389949786
FINAL SINGLE POINT ENERGY      -652.854724407341
FINAL SINGLE POINT ENERGY      -652.859208023465
FINAL SINGLE POINT ENERGY      -652.859944660981
FINAL SINGLE POINT ENERGY      -652.860061937316
FINAL SINGLE POINT ENERGY      -652.860076653029
                    ***********************HURRAY********************

CARTESIAN COORDINATES (ANGSTROEM)
---------------------------------
  C    -20.971996   26.240756   46.193892
  C    -20.254232   27.574765   45.995430
  C    -20.383132   28.223243   47.397318
  C    -20.279539   27.007973   48.342566
  O    -20.559481   25.818226   47.499536
  H    -20.725577   25.452796   45.484724
  H    -19.203849   27.378190   45.749982
  H    -20.675799   28.194770   45.199371
  H    -19.605661   28.969161   47.588249
  H    -21.359594   28.706869   47.494604
  H    -21.003439   27.035552   49.160984
  H    -19.273735   26.872406   48.751685
  C    -23.153219   26.834396   45.081875
  H    -24.144216   27.120222   45.449546
  H    -22.687704   27.725725   44.635141
  O    -22.431184   26.407764   46.262398
  C    -23.309852   25.729870   44.032581
  C    -24.044372   26.162301   42.753853
  C    -22.899327   26.822078   41.940676
  C    -21.664639   25.960094   42.307643
  O    -22.013658   25.229973   43.552956
  H    -23.803827   24.873838   44.502203
  O    -24.607502   25.016567   42.059722
  H    -24.886422   26.832526   42.933440
  H    -23.127441   26.807325   40.871772
  H    -22.764633   27.864507   42.250285
  H    -20.766484   26.559974   42.484974
  H    -21.436265   25.207407   41.547480
  H    -23.963221   24.277729   42.081115

 Multiplicity           Mult            ....    1
 Number of Electrons    NEL             ....  102
 Basis Dimension        Dim             ....  149

ORBITAL ENERGIES
----------------

  NO   OCC          E(Eh)            E(eV)
   0   2.0000     -19.153282      -521.1873
   1   2.0000     -19.143874      -520.9313
   2   2.0000     -19.134693      -520.6815
   3   2.0000     -19.133101      -520.6381
   4   2.0000     -10.267232      -279.3856
   5   2.0000     -10.249461      -278.9020
   6   2.0000     -10.239802      -278.6392
   7   2.0000     -10.238044      -278.5913
   8   2.0000     -10.234763      -278.5021
   9   2.0000     -10.219693      -278.0920
  10   2.0000     -10.197396      -277.4852
  11   2.0000     -10.184447      -277.1329
  12   2.0000     -10.183752      -277.1140
  13   2.0000      -1.048917       -28.5425
  14   2.0000      -1.040597       -28.3161
  15   2.0000      -1.013103       -27.5679
  16   2.0000      -0.986600       -26.8468
  17   2.0000      -0.790963       -21.5232
  18   2.0000      -0.782138       -21.2831
  19   2.0000      -0.770910       -20.9775
  20   2.0000      -0.729828       -19.8596
  21   2.0000      -0.678755       -18.4699
  22   2.0000      -0.611121       -16.6294
  23   2.0000      -0.603918       -16.4335
  24   2.0000      -0.593637       -16.1537
  25   2.0000      -0.572787       -15.5863
  26   2.0000      -0.531985       -14.4760
  27   2.0000      -0.507901       -13.8207
  28   2.0000      -0.499481       -13.5916
  29   2.0000      -0.488848       -13.3022
  30   2.0000      -0.478902       -13.0316
  31   2.0000      -0.459283       -12.4977
  32   2.0000      -0.450478       -12.2581
  33   2.0000      -0.445001       -12.1091
  34   2.0000      -0.428835       -11.6692
  35   2.0000      -0.405470       -11.0334
  36   2.0000      -0.402072       -10.9409
  37   2.0000      -0.400297       -10.8926
  38   2.0000      -0.380508       -10.3541
  39   2.0000      -0.373040       -10.1509
  40   2.0000      -0.366780        -9.9806
  41   2.0000      -0.352320        -9.5871
  42   2.0000      -0.351147        -9.5552
  43   2.0000      -0.336684        -9.1616
  44   2.0000      -0.318131        -8.6568
  45   2.0000      -0.306130        -8.3302
  46   2.0000      -0.296513        -8.0685
  47   2.0000      -0.279508        -7.6058
  48   2.0000      -0.269821        -7.3422
  49   2.0000      -0.251176        -6.8349
  50   2.0000      -0.236120        -6.4252
  51   0.0000       0.053724         1.4619
  52   0.0000       0.075181         2.0458
  53   0.0000       0.088599         2.4109
  54   0.0000       0.093840         2.5535
  55   0.0000       0.102354         2.7852

MULLIKEN ATOMIC CHARGES
-----------------------
   0 C :    0.294101
   1 C :   -0.286502
   2 C :   -0.296730
   3 C :    0.000875
   4 O :   -0.501488
   5 H :    0.184629
   6 H :    0.147809
   7 H :    0.134883
   8 H :    0.139203
   9 H :    0.155135
  10 H :    0.152361
  11 H :    0.139360
  12 C :   -0.016160
  13 H :    0.154170
  14 H :    0.113221
  15 O :   -0.511731
  16 C :    0.064865
  17 C :    0.073873
  18 C :   -0.296554
  19 C :   -0.032113
  20 O :   -0.522064
  21 H :    0.174762
  22 O :   -0.598147
  23 H :    0.156011
  24 H :    0.167676
  25 H :    0.144137
  26 H :    0.145338
  27 H :    0.152853
  28 H :    0.366227
Sum of atomic charges:    0.0000000

LOEWDIN ATOMIC CHARGES
----------------------
   0 C :    0.177169
   1 C :   -0.232939
   2 C :   -0.217454
   3 C :   -0.025874
   4 O :   -0.301973
   5 H :    0.117328
   6 H :    0.115798
   7 H :    0.108169
   8 H :    0.112575
   9 H :    0.115158
  10 H :    0.108374
  11 H :    0.101152
  12 C :   -0.043789
  13 H :    0.117553
  14 H :    0.084631
  15 O :   -0.330583
  16 C :    0.005416
  17 C :    0.035588
  18 C :   -0.241693
  19 C :   -0.039270
  20 O :   -0.328665
  21 H :    0.122498
  22 O :   -0.411826
  23 H :    0.117371
  24 H :    0.128931
  25 H :    0.112791
  26 H :    0.103143
  27 H :    0.106037
  28 H :    0.284384

  Mayer bond orders larger than 0.100000
B(  0-C ,  1-C ) :   0.9310 B(  0-C ,  4-O ) :   0.9260 B(  0-C ,  5-H ) :   0.9029
B(  0-C , 15-O ) :   0.8135 B(  1-C ,  2-C ) :   0.9495 B(  1-C ,  6-H ) :   0.9351
B(  1-C ,  7-H ) :   0.9324 B(  2-C ,  3-C ) :   0.9565 B(  2-C ,  8-H ) :   0.9454
B(  2-C ,  9-H ) :   0.9457 B(  3-C ,  4-O ) :   0.8397 B(  3-C , 10-H ) :   0.9346
B(  3-C , 11-H ) :   0.9400 B( 12-C , 13-H ) :   0.9292 B( 12-C , 14-H ) :   0.9127
B( 12-C , 15-O ) :   0.8810 B( 12-C , 16-C ) :   0.8845 B( 16-C , 17-C ) :   0.8942
B( 16-C , 20-O ) :   0.8449 B( 16-C , 21-H ) :   0.9225 B( 17-C , 18-C ) :   0.9113
B( 17-C , 22-O ) :   0.8950 B( 17-C , 23-H ) :   0.9333 B( 18-C , 19-C ) :   0.9415
B( 18-C , 24-H ) :   0.9361 B( 18-C , 25-H ) :   0.9327 B( 19-C , 20-O ) :   0.8436
B( 19-C , 26-H ) :   0.9336 B( 19-C , 27-H ) :   0.9372 B( 22-O , 28-H ) :   0.7937

FINAL SINGLE POINT ENERGY      -652.860080102000

DIPOLE MOMENT
-------------
                                X             Y             Z
Electronic contribution:     -2.70701      -6.10898       0.75899
Nuclear contribution   :      3.24654       7.53076      -1.56136
                        -----------------------------------------
Total Dipole Moment    :      0.53953       1.42178      -0.80237
                        -----------------------------------------
Magnitude (a.u.)       :      1.71941
Magnitude (Debye)      :      4.37039

Rotational constants in cm-1:     0.067141     0.012733     0.012329
Rotational constants in MHz :  2012.836512   381.717493   369.623610

                             ****ORCA TERMINATED NORMALLY****
TOTAL RUN TIME: 0 days 0 hours 52 minutes 13 seconds 743 msec
