                         Program Version 4.2.0 -  RELEASE  -
|  1> # Test redundant internal optimization
|  2> #
|  3> ! RKS B3LYP  Opt TightSCF SmallPrint
|  4>
|  5> %basis
|  6>         Basis "6-31G"
|  7> end
|  8>
|  9> %geom
| 10> Constraints
| 11> { D 4  0  15  12  345.0   C } # D for Dihedral angle
| 12> { D 0  15  12  16  150.0   C } # D for Dihedral angle
| 13> { D 0  4  3  2   C } # D for Dihedral angle
| 14> { D 4  3  2  1   C } # D for Dihedral angle
| 15> { D 3  2  1  0   C } # D for Dihedral angle
| 16> { D 2  1  0  4   C } # D for Dihedral angle
| 17> { D 1  0  4  3   C } # D for Dihedral angle
| 18> { D 16  20  19  18   C } # D for Dihedral angle
| 19> { D 20  19  18  17   C } # D for Dihedral angle
| 20> { D 19  18  17  16   C } # D for Dihedral angle
| 21> { D 18  17  16  20   C } # D for Dihedral angle
| 22> { D 17  16  20  19   C } # D for Dihedral angle
| 23> { D 15  12  16  20   C } # D for Dihedral angle
| 24> end
| 25> end
| 26>
| 27>
| 28> #%pal
| 29> #nprocs 8
| 30> #end
| 31>
| 32> * xyz 0 1
| 33> C  -21.048   26.222   46.251
| 34> C  -20.361   27.558   45.944
| 35> C  -20.329   28.222   47.341
| 36> C  -20.110   27.022   48.296
| 37> O  -20.473   25.807   47.535
| 38> H  -20.833   25.428   45.533
| 39> H  -19.344   27.382   45.576
| 40> H  -20.898   28.157   45.201
| 41> H  -19.543   28.978   47.434
| 42> H  -21.289   28.710   47.548
| 43> H  -20.733   27.082   49.195
| 44> H  -19.064   26.913   48.597
| 45> C  -23.221   25.764   47.645
| 46> H  -23.501   24.725   47.432
| 47> H  -22.501   25.762   48.474
| 48> O  -22.586   26.394   46.375
| 49> C  -24.489   26.524   48.123
| 50> C  -25.020   25.948   49.440
| 51> C  -24.061   26.587   50.472
| 52> C  -23.782   27.988   49.873
| 53> O  -24.161   27.917   48.445
| 54> H  -25.219   26.547   47.312
| 55> H  -26.050   26.283   49.610
| 56> O  -24.999   24.395   49.478
| 57> H  -24.492   26.640   51.476
| 58> H  -23.134   26.003   50.536
| 59> H  -22.728   28.275   49.950
| 60> H  -24.397   28.768   50.331
| 61> H  -23.978   24.035   49.312
| 62> *
| 63>
| 64>                          ****END OF INPUT****
 Total Charge           Charge          ....    0
 Multiplicity           Mult            ....    1
 Number of Electrons    NEL             ....  102
FINAL SINGLE POINT ENERGY      -652.828420212740
FINAL SINGLE POINT ENERGY      -652.852320012498
FINAL SINGLE POINT ENERGY      -652.857238323870
FINAL SINGLE POINT ENERGY      -652.857977404756
FINAL SINGLE POINT ENERGY      -652.858097816166
FINAL SINGLE POINT ENERGY      -652.858123464467
FINAL SINGLE POINT ENERGY      -652.858125766126
                    ***********************HURRAY********************

CARTESIAN COORDINATES (ANGSTROEM)
---------------------------------
  C    -21.068155   26.223590   46.274441
  C    -20.543851   27.627617   45.975005
  C    -20.376402   28.209074   47.395843
  C    -19.932200   26.990433   48.231076
  O    -20.303789   25.790872   47.424064
  H    -20.890108   25.476097   45.496258
  H    -19.581888   27.553401   45.453986
  H    -21.243202   28.198437   45.360905
  H    -19.649511   29.026017   47.435420
  H    -21.345749   28.579558   47.742336
  H    -20.429503   26.927693   49.204072
  H    -18.849458   26.938119   48.378340
  C    -23.075128   25.674620   47.681457
  H    -23.385506   24.647035   47.441680
  H    -22.332211   25.626608   48.484925
  O    -22.501113   26.308781   46.511739
  C    -24.302003   26.488359   48.085908
  C    -25.014245   25.971890   49.348405
  C    -24.163422   26.619146   50.482020
  C    -23.768526   27.983846   49.877969
  O    -23.970587   27.877277   48.408525
  H    -24.975430   26.542216   47.225778
  H    -26.035797   26.356777   49.371563
  O    -25.165945   24.535849   49.441406
  H    -24.721850   26.711249   51.417218
  H    -23.280638   25.995201   50.675323
  H    -22.725874   28.252179   50.076694
  H    -24.412227   28.795152   50.230306
  H    -24.299681   24.108908   49.602338

 Multiplicity           Mult            ....    1
 Number of Electrons    NEL             ....  102
 Basis Dimension        Dim             ....  149

ORBITAL ENERGIES
----------------

  NO   OCC          E(Eh)            E(eV)
   0   2.0000     -19.149244      -521.0774
   1   2.0000     -19.148963      -521.0698
   2   2.0000     -19.140378      -520.8362
   3   2.0000     -19.133933      -520.6608
   4   2.0000     -10.276586      -279.6401
   5   2.0000     -10.245359      -278.7904
   6   2.0000     -10.233091      -278.4565
   7   2.0000     -10.230908      -278.3972
   8   2.0000     -10.229198      -278.3506
   9   2.0000     -10.225780      -278.2576
  10   2.0000     -10.196591      -277.4634
  11   2.0000     -10.182215      -277.0722
  12   2.0000     -10.180366      -277.0218
  13   2.0000      -1.053220       -28.6596
  14   2.0000      -1.033636       -28.1267
  15   2.0000      -1.016165       -27.6513
  16   2.0000      -0.989337       -26.9212
  17   2.0000      -0.788191       -21.4478
  18   2.0000      -0.782512       -21.2932
  19   2.0000      -0.767717       -20.8907
  20   2.0000      -0.731979       -19.9182
  21   2.0000      -0.677850       -18.4452
  22   2.0000      -0.612187       -16.6585
  23   2.0000      -0.600136       -16.3305
  24   2.0000      -0.589708       -16.0468
  25   2.0000      -0.572139       -15.5687
  26   2.0000      -0.529766       -14.4157
  27   2.0000      -0.511626       -13.9221
  28   2.0000      -0.496477       -13.5098
  29   2.0000      -0.490960       -13.3597
  30   2.0000      -0.472569       -12.8592
  31   2.0000      -0.457970       -12.4620
  32   2.0000      -0.445006       -12.1092
  33   2.0000      -0.435625       -11.8540
  34   2.0000      -0.427843       -11.6422
  35   2.0000      -0.413714       -11.2577
  36   2.0000      -0.404071       -10.9953
  37   2.0000      -0.396022       -10.7763
  38   2.0000      -0.380415       -10.3516
  39   2.0000      -0.368862       -10.0373
  40   2.0000      -0.358883        -9.7657
  41   2.0000      -0.353992        -9.6326
  42   2.0000      -0.344646        -9.3783
  43   2.0000      -0.335453        -9.1281
  44   2.0000      -0.327513        -8.9121
  45   2.0000      -0.314340        -8.5536
  46   2.0000      -0.300463        -8.1760
  47   2.0000      -0.271413        -7.3855
  48   2.0000      -0.263584        -7.1725
  49   2.0000      -0.251553        -6.8451
  50   2.0000      -0.239400        -6.5144
  51   0.0000       0.049548         1.3483
  52   0.0000       0.056057         1.5254
  53   0.0000       0.091906         2.5009
  54   0.0000       0.095376         2.5953
  55   0.0000       0.103273         2.8102

MULLIKEN ATOMIC CHARGES
-----------------------
   0 C :    0.300778
   1 C :   -0.253783
   2 C :   -0.315794
   3 C :   -0.021043
   4 O :   -0.516324
   5 H :    0.150299
   6 H :    0.139487
   7 H :    0.166368
   8 H :    0.140752
   9 H :    0.186010
  10 H :    0.134085
  11 H :    0.150476
  12 C :   -0.013496
  13 H :    0.130953
  14 H :    0.143294
  15 O :   -0.532003
  16 C :    0.092766
  17 C :    0.085841
  18 C :   -0.328585
  19 C :   -0.010327
  20 O :   -0.507709
  21 H :    0.167987
  22 H :    0.169545
  23 O :   -0.598378
  24 H :    0.158593
  25 H :    0.136225
  26 H :    0.135290
  27 H :    0.151259
  28 H :    0.357435
Sum of atomic charges:   -0.0000000

LOEWDIN ATOMIC CHARGES
----------------------
   0 C :    0.184255
   1 C :   -0.216200
   2 C :   -0.223237
   3 C :   -0.032249
   4 O :   -0.324454
   5 H :    0.100327
   6 H :    0.110606
   7 H :    0.129183
   8 H :    0.114429
   9 H :    0.129064
  10 H :    0.095460
  11 H :    0.106220
  12 C :   -0.050087
  13 H :    0.097406
  14 H :    0.100102
  15 O :   -0.330605
  16 C :    0.019412
  17 C :    0.036049
  18 C :   -0.242947
  19 C :   -0.031553
  20 O :   -0.317034
  21 H :    0.120870
  22 H :    0.120094
  23 O :   -0.405417
  24 H :    0.123139
  25 H :    0.104981
  26 H :    0.096993
  27 H :    0.106640
  28 H :    0.278554

  Mayer bond orders larger than 0.100000
B(  0-C ,  1-C ) :   0.9394 B(  0-C ,  4-O ) :   0.9051 B(  0-C ,  5-H ) :   0.9259
B(  0-C , 15-O ) :   0.8431 B(  1-C ,  2-C ) :   0.9537 B(  1-C ,  6-H ) :   0.9370
B(  1-C ,  7-H ) :   0.9346 B(  2-C ,  3-C ) :   0.9556 B(  2-C ,  8-H ) :   0.9441
B(  2-C ,  9-H ) :   0.9269 B(  3-C ,  4-O ) :   0.8292 B(  3-C , 10-H ) :   0.9321
B(  3-C , 11-H ) :   0.9408 B( 12-C , 13-H ) :   0.9101 B( 12-C , 14-H ) :   0.9076
B( 12-C , 15-O ) :   0.8414 B( 12-C , 16-C ) :   0.9029 B( 16-C , 17-C ) :   0.8742
B( 16-C , 20-O ) :   0.8592 B( 16-C , 21-H ) :   0.9284 B( 17-C , 18-C ) :   0.9205
B( 17-C , 22-H ) :   0.9330 B( 17-C , 23-O ) :   0.9002 B( 18-C , 19-C ) :   0.9407
B( 18-C , 24-H ) :   0.9419 B( 18-C , 25-H ) :   0.9406 B( 19-C , 20-O ) :   0.8511
B( 19-C , 26-H ) :   0.9290 B( 19-C , 27-H ) :   0.9376 B( 23-O , 28-H ) :   0.7967

FINAL SINGLE POINT ENERGY      -652.858125876690

DIPOLE MOMENT
-------------
                                X             Y             Z
Electronic contribution:     -3.03249      -3.22869      -2.87436
Nuclear contribution   :      3.79084       3.63789       3.77041
                        -----------------------------------------
Total Dipole Moment    :      0.75835       0.40920       0.89605
                        -----------------------------------------
Magnitude (a.u.)       :      1.24316
Magnitude (Debye)      :      3.15985

Rotational constants in cm-1:     0.047057     0.016387     0.015003
Rotational constants in MHz :  1410.726214   491.276209   449.766342

                             ****ORCA TERMINATED NORMALLY****
TOTAL RUN TIME: 0 days 0 hours 19 minutes 35 seconds 359 msec
