                         Program Version 4.2.0 -  RELEASE  -
|  1> # Test redundant internal optimization
|  2> #
|  3> ! RKS B3LYP  Opt TightSCF SmallPrint
|  4>
|  5> %basis
|  6>         Basis "6-31G"
|  7> end
|  8>
|  9> %geom
| 10> Constraints
| 11> { D 4  0  15  12  315.0   C } # D for Dihedral angle
| 12> { D 0  15  12  16  210.0   C } # D for Dihedral angle
| 13> { D 0  4  3  2   C } # D for Dihedral angle
| 14> { D 4  3  2  1   C } # D for Dihedral angle
| 15> { D 3  2  1  0   C } # D for Dihedral angle
| 16> { D 2  1  0  4   C } # D for Dihedral angle
| 17> { D 1  0  4  3   C } # D for Dihedral angle
| 18> { D 16  20  19  18   C } # D for Dihedral angle
| 19> { D 20  19  18  17   C } # D for Dihedral angle
| 20> { D 19  18  17  16   C } # D for Dihedral angle
| 21> { D 18  17  16  20   C } # D for Dihedral angle
| 22> { D 17  16  20  19   C } # D for Dihedral angle
| 23> { D 15  12  16  20   C } # D for Dihedral angle
| 24> end
| 25> end
| 26>
| 27>
| 28> #%pal
| 29> #nprocs 8
| 30> #end
| 31>
| 32> * xyz 0 1
| 33> C  -21.048   26.222   46.251
| 34> C  -20.361   27.558   45.944
| 35> C  -20.329   28.222   47.341
| 36> C  -20.110   27.022   48.296
| 37> O  -20.473   25.807   47.535
| 38> H  -20.833   25.428   45.533
| 39> H  -19.344   27.382   45.576
| 40> H  -20.898   28.157   45.201
| 41> H  -19.543   28.978   47.434
| 42> H  -21.289   28.710   47.548
| 43> H  -20.733   27.082   49.195
| 44> H  -19.064   26.913   48.597
| 45> C  -23.319   25.255   47.135
| 46> H  -22.766   24.316   47.001
| 47> H  -23.363   25.476   48.209
| 48> O  -22.586   26.394   46.375
| 49> C  -24.775   25.040   46.636
| 50> C  -24.799   24.559   45.181
| 51> C  -24.469   23.056   45.341
| 52> C  -25.163   22.684   46.676
| 53> O  -25.418   23.955   47.386
| 54> H  -25.354   25.946   46.824
| 55> O  -26.220   24.748   44.582
| 56> H  -24.084   25.086   44.541
| 57> H  -24.826   22.451   44.502
| 58> H  -23.384   22.916   45.417
| 59> H  -24.541   22.040   47.306
| 60> H  -26.131   22.200   46.522
| 61> H  -26.956   24.227   45.207
| 62> *
| 63>
| 64>                          ****END OF INPUT****
 Total Charge           Charge          ....    0
 Multiplicity           Mult            ....    1
 Number of Electrons    NEL             ....  102
FINAL SINGLE POINT ENERGY      -652.840260013457
FINAL SINGLE POINT ENERGY      -652.863986414416
FINAL SINGLE POINT ENERGY      -652.867673284444
FINAL SINGLE POINT ENERGY      -652.868342507874
FINAL SINGLE POINT ENERGY      -652.868446188105
FINAL SINGLE POINT ENERGY      -652.868459802492
FINAL SINGLE POINT ENERGY      -652.868462671050
                    ***********************HURRAY********************

CARTESIAN COORDINATES (ANGSTROEM)
---------------------------------
  C    -21.106339   26.118204   46.295989
  C    -20.540340   27.490100   45.931722
  C    -20.498296   28.187611   47.308355
  C    -20.147100   27.039391   48.279703
  O    -20.456030   25.780410   47.544510
  H    -20.868910   25.298676   45.609208
  H    -19.533778   27.365180   45.517076
  H    -21.164572   28.012414   45.203589
  H    -19.766036   29.000088   47.345728
  H    -21.484473   28.600386   47.539343
  H    -20.731766   27.060388   49.202813
  H    -19.082505   26.999531   48.527465
  C    -23.208438   25.203752   47.198555
  H    -22.653327   24.259794   47.122912
  H    -23.253037   25.479859   48.256175
  O    -22.539764   26.249419   46.427361
  C    -24.621489   25.049966   46.637128
  C    -24.691440   24.582690   45.176366
  C    -24.462179   23.056482   45.322722
  C    -25.167193   22.720475   46.661302
  O    -25.329764   24.005140   47.386147
  H    -25.179368   25.980708   46.771786
  O    -25.994534   24.876465   44.599750
  H    -23.966548   25.081288   44.535636
  H    -24.887837   22.519039   44.471852
  H    -23.391038   22.831530   45.368630
  H    -24.590806   22.030503   47.285428
  H    -26.169340   22.304702   46.515978
  H    -26.692754   24.645809   45.248770

 Multiplicity           Mult            ....    1
 Number of Electrons    NEL             ....  102
 Basis Dimension        Dim             ....  149

ORBITAL ENERGIES
----------------

  NO   OCC          E(Eh)            E(eV)
   0   2.0000     -19.146388      -520.9997
   1   2.0000     -19.146235      -520.9955
   2   2.0000     -19.143047      -520.9088
   3   2.0000     -19.133990      -520.6623
   4   2.0000     -10.281761      -279.7809
   5   2.0000     -10.234336      -278.4904
   6   2.0000     -10.230696      -278.3914
   7   2.0000     -10.230256      -278.3794
   8   2.0000     -10.229111      -278.3483
   9   2.0000     -10.227066      -278.2926
  10   2.0000     -10.187770      -277.2233
  11   2.0000     -10.187594      -277.2185
  12   2.0000     -10.186662      -277.1932
  13   2.0000      -1.057740       -28.7826
  14   2.0000      -1.034269       -28.1439
  15   2.0000      -1.002790       -27.2873
  16   2.0000      -0.995698       -27.0943
  17   2.0000      -0.792728       -21.5712
  18   2.0000      -0.777349       -21.1527
  19   2.0000      -0.766422       -20.8554
  20   2.0000      -0.731129       -19.8950
  21   2.0000      -0.672512       -18.3000
  22   2.0000      -0.602520       -16.3954
  23   2.0000      -0.601909       -16.3788
  24   2.0000      -0.590404       -16.0657
  25   2.0000      -0.580161       -15.7870
  26   2.0000      -0.521087       -14.1795
  27   2.0000      -0.517753       -14.0888
  28   2.0000      -0.495915       -13.4945
  29   2.0000      -0.492998       -13.4151
  30   2.0000      -0.470855       -12.8126
  31   2.0000      -0.456749       -12.4288
  32   2.0000      -0.446793       -12.1579
  33   2.0000      -0.437175       -11.8961
  34   2.0000      -0.422912       -11.5080
  35   2.0000      -0.410796       -11.1783
  36   2.0000      -0.404963       -11.0196
  37   2.0000      -0.391402       -10.6506
  38   2.0000      -0.376209       -10.2372
  39   2.0000      -0.366271        -9.9667
  40   2.0000      -0.360395        -9.8069
  41   2.0000      -0.352398        -9.5892
  42   2.0000      -0.350879        -9.5479
  43   2.0000      -0.341412        -9.2903
  44   2.0000      -0.325497        -8.8572
  45   2.0000      -0.306542        -8.3414
  46   2.0000      -0.300658        -8.1813
  47   2.0000      -0.269169        -7.3245
  48   2.0000      -0.267600        -7.2818
  49   2.0000      -0.259136        -7.0515
  50   2.0000      -0.243880        -6.6363
  51   0.0000       0.067125         1.8266
  52   0.0000       0.072867         1.9828
  53   0.0000       0.094190         2.5630
  54   0.0000       0.100463         2.7337
  55   0.0000       0.106407         2.8955

MULLIKEN ATOMIC CHARGES
-----------------------
   0 C :    0.290760
   1 C :   -0.262122
   2 C :   -0.299548
   3 C :   -0.009557
   4 O :   -0.513876
   5 H :    0.143892
   6 H :    0.145666
   7 H :    0.162191
   8 H :    0.143589
   9 H :    0.162682
  10 H :    0.147977
  11 H :    0.146641
  12 C :    0.002857
  13 H :    0.139069
  14 H :    0.155743
  15 O :   -0.534837
  16 C :    0.056998
  17 C :    0.090878
  18 C :   -0.294888
  19 C :   -0.037306
  20 O :   -0.527472
  21 H :    0.165369
  22 O :   -0.604714
  23 H :    0.166505
  24 H :    0.160638
  25 H :    0.142840
  26 H :    0.148957
  27 H :    0.148171
  28 H :    0.362898
Sum of atomic charges:   -0.0000000

LOEWDIN ATOMIC CHARGES
----------------------
   0 C :    0.174145
   1 C :   -0.214542
   2 C :   -0.216302
   3 C :   -0.029162
   4 O :   -0.328887
   5 H :    0.094879
   6 H :    0.114606
   7 H :    0.126715
   8 H :    0.115044
   9 H :    0.119412
  10 H :    0.105518
  11 H :    0.104803
  12 C :   -0.037040
  13 H :    0.101065
  14 H :    0.110951
  15 O :   -0.336276
  16 C :    0.015637
  17 C :    0.037800
  18 C :   -0.241120
  19 C :   -0.039951
  20 O :   -0.330904
  21 H :    0.117947
  22 O :   -0.415410
  23 H :    0.123017
  24 H :    0.126125
  25 H :    0.112362
  26 H :    0.104845
  27 H :    0.103078
  28 H :    0.281647

  Mayer bond orders larger than 0.100000
B(  0-C ,  1-C ) :   0.9505 B(  0-C ,  4-O ) :   0.9008 B(  0-C ,  5-H ) :   0.9205
B(  0-C , 15-O ) :   0.8535 B(  1-C ,  2-C ) :   0.9544 B(  1-C ,  6-H ) :   0.9386
B(  1-C ,  7-H ) :   0.9352 B(  2-C ,  3-C ) :   0.9558 B(  2-C ,  8-H ) :   0.9447
B(  2-C ,  9-H ) :   0.9444 B(  3-C ,  4-O ) :   0.8328 B(  3-C , 10-H ) :   0.9353
B(  3-C , 11-H ) :   0.9404 B( 12-C , 13-H ) :   0.9202 B( 12-C , 14-H ) :   0.9237
B( 12-C , 15-O ) :   0.8073 B( 12-C , 16-C ) :   0.9031 B( 16-C , 17-C ) :   0.9096
B( 16-C , 20-O ) :   0.8417 B( 16-C , 21-H ) :   0.9251 B( 17-C , 18-C ) :   0.9117
B( 17-C , 22-O ) :   0.8910 B( 17-C , 23-H ) :   0.9258 B( 18-C , 19-C ) :   0.9427
B( 18-C , 24-H ) :   0.9380 B( 18-C , 25-H ) :   0.9351 B( 19-C , 20-O ) :   0.8442
B( 19-C , 26-H ) :   0.9348 B( 19-C , 27-H ) :   0.9374 B( 22-O , 28-H ) :   0.7957

FINAL SINGLE POINT ENERGY      -652.868463026942

DIPOLE MOMENT
-------------
                                X             Y             Z
Electronic contribution:     -3.63157      -0.97698      -0.08858
Nuclear contribution   :      4.40905       0.97311       0.20152
                        -----------------------------------------
Total Dipole Moment    :      0.77748      -0.00387       0.11294
                        -----------------------------------------
Magnitude (a.u.)       :      0.78565
Magnitude (Debye)      :      1.99696

Rotational constants in cm-1:     0.060417     0.012330     0.011565
Rotational constants in MHz :  1811.243175   369.636912   346.702018

                             ****ORCA TERMINATED NORMALLY****
TOTAL RUN TIME: 0 days 1 hours 7 minutes 10 seconds 847 msec
