                         Program Version 4.2.0 -  RELEASE  -
|  1> # Test redundant internal optimization
|  2> #
|  3> ! RKS B3LYP  Opt TightSCF SmallPrint
|  4>
|  5> %basis
|  6>         Basis "6-31G"
|  7> end
|  8>
|  9> %geom
| 10> Constraints
| 11> { D 4  0  15  12  90.0   C } # D for Dihedral angle
| 12> { D 0  15  12  16  135.0   C } # D for Dihedral angle
| 13> { D 0  4  3  2   C } # D for Dihedral angle
| 14> { D 4  3  2  1   C } # D for Dihedral angle
| 15> { D 3  2  1  0   C } # D for Dihedral angle
| 16> { D 2  1  0  4   C } # D for Dihedral angle
| 17> { D 1  0  4  3   C } # D for Dihedral angle
| 18> { D 16  20  19  18   C } # D for Dihedral angle
| 19> { D 20  19  18  17   C } # D for Dihedral angle
| 20> { D 19  18  17  16   C } # D for Dihedral angle
| 21> { D 18  17  16  20   C } # D for Dihedral angle
| 22> { D 17  16  20  19   C } # D for Dihedral angle
| 23> { D 15  12  16  20   C } # D for Dihedral angle
| 24> end
| 25> end
| 26>
| 27>
| 28> #%pal
| 29> #nprocs 8
| 30> #end
| 31>
| 32> * xyz 0 1
| 33> C  -21.048   26.222   46.251
| 34> C  -20.361   27.558   45.944
| 35> C  -20.329   28.222   47.341
| 36> C  -20.110   27.022   48.296
| 37> O  -20.473   25.807   47.535
| 38> H  -20.833   25.428   45.533
| 39> H  -19.344   27.382   45.576
| 40> H  -20.898   28.157   45.201
| 41> H  -19.543   28.978   47.434
| 42> H  -21.289   28.710   47.548
| 43> H  -20.733   27.082   49.195
| 44> H  -19.064   26.913   48.597
| 45> C  -23.061   27.816   46.783
| 46> H  -23.369   27.806   47.836
| 47> H  -22.244   28.540   46.672
| 48> O  -22.586   26.394   46.375
| 49> C  -24.257   28.318   45.928
| 50> C  -25.504   27.456   46.156
| 51> C  -26.031   28.014   47.499
| 52> C  -25.690   29.523   47.411
| 53> O  -24.664   29.661   46.355
| 54> H  -23.944   28.394   44.885
| 55> H  -26.231   27.628   45.354
| 56> O  -25.193   25.935   46.215
| 57> H  -27.101   27.836   47.643
| 58> H  -25.498   27.545   48.335
| 59> H  -25.292   29.919   48.351
| 60> H  -26.548   30.127   47.108
| 61> H  -24.466   25.740   47.011
| 62> *
| 63>
| 64>                          ****END OF INPUT****
 Total Charge           Charge          ....    0
 Multiplicity           Mult            ....    1
 Number of Electrons    NEL             ....  102
FINAL SINGLE POINT ENERGY      -652.800427136203
FINAL SINGLE POINT ENERGY      -652.833984756980
FINAL SINGLE POINT ENERGY      -652.851414186975
FINAL SINGLE POINT ENERGY      -652.856017104583
FINAL SINGLE POINT ENERGY      -652.857819948310
FINAL SINGLE POINT ENERGY      -652.858917278214
FINAL SINGLE POINT ENERGY      -652.859402510445
FINAL SINGLE POINT ENERGY      -652.859529406285
FINAL SINGLE POINT ENERGY      -652.859554763081
FINAL SINGLE POINT ENERGY      -652.859557556238
                    ***********************HURRAY********************

CARTESIAN COORDINATES (ANGSTROEM)
---------------------------------
  C    -21.228577   26.374604   46.436194
  C    -20.276817   27.474029   45.946133
  C    -19.868882   28.172319   47.278316
  C    -19.827585   26.985845   48.273999
  O    -20.601089   25.891351   47.638755
  H    -21.283812   25.513224   45.769845
  H    -19.409427   26.995150   45.481731
  H    -20.731021   28.151253   45.217425
  H    -18.897046   28.669293   47.199837
  H    -20.599133   28.925617   47.581034
  H    -20.273898   27.220241   49.244672
  H    -18.814137   26.605709   48.429322
  C    -23.152362   28.030513   46.977653
  H    -23.461448   27.993455   48.028063
  H    -22.407994   28.819435   46.858575
  O    -22.629099   26.715622   46.594976
  C    -24.328653   28.346883   46.046120
  C    -25.527646   27.390147   46.162545
  C    -26.235432   27.924354   47.441317
  C    -26.004178   29.446662   47.360482
  O    -24.875748   29.654372   46.401824
  H    -23.959560   28.421942   45.019148
  H    -26.180697   27.544747   45.296129
  O    -25.217860   25.985914   46.215530
  H    -27.294539   27.655205   47.460042
  H    -25.760356   27.478631   48.321962
  H    -25.734263   29.897620   48.320498
  H    -26.862993   29.983999   46.948032
  H    -24.259746   25.864866   46.417842

 Multiplicity           Mult            ....    1
 Number of Electrons    NEL             ....  102
 Basis Dimension        Dim             ....  149

ORBITAL ENERGIES
----------------

  NO   OCC          E(Eh)            E(eV)
   0   2.0000     -19.164389      -521.4895
   1   2.0000     -19.150277      -521.1055
   2   2.0000     -19.141605      -520.8695
   3   2.0000     -19.110593      -520.0257
   4   2.0000     -10.293556      -280.1019
   5   2.0000     -10.241473      -278.6846
   6   2.0000     -10.237079      -278.5651
   7   2.0000     -10.234590      -278.4973
   8   2.0000     -10.229233      -278.3516
   9   2.0000     -10.227077      -278.2929
  10   2.0000     -10.203678      -277.6562
  11   2.0000     -10.202464      -277.6232
  12   2.0000     -10.178334      -276.9665
  13   2.0000      -1.063565       -28.9411
  14   2.0000      -1.026343       -27.9282
  15   2.0000      -1.009559       -27.4715
  16   2.0000      -0.990513       -26.9532
  17   2.0000      -0.798921       -21.7397
  18   2.0000      -0.779940       -21.2232
  19   2.0000      -0.768494       -20.9118
  20   2.0000      -0.739166       -20.1137
  21   2.0000      -0.685749       -18.6602
  22   2.0000      -0.614866       -16.7314
  23   2.0000      -0.602319       -16.3899
  24   2.0000      -0.596430       -16.2297
  25   2.0000      -0.577323       -15.7098
  26   2.0000      -0.536068       -14.5871
  27   2.0000      -0.512727       -13.9520
  28   2.0000      -0.511589       -13.9210
  29   2.0000      -0.487741       -13.2721
  30   2.0000      -0.476866       -12.9762
  31   2.0000      -0.464311       -12.6345
  32   2.0000      -0.441791       -12.0217
  33   2.0000      -0.436901       -11.8887
  34   2.0000      -0.427433       -11.6310
  35   2.0000      -0.423963       -11.5366
  36   2.0000      -0.411856       -11.2072
  37   2.0000      -0.394315       -10.7299
  38   2.0000      -0.388187       -10.5631
  39   2.0000      -0.371589       -10.1115
  40   2.0000      -0.368023       -10.0144
  41   2.0000      -0.362340        -9.8598
  42   2.0000      -0.347401        -9.4533
  43   2.0000      -0.340867        -9.2755
  44   2.0000      -0.323878        -8.8132
  45   2.0000      -0.314606        -8.5609
  46   2.0000      -0.290628        -7.9084
  47   2.0000      -0.276883        -7.5344
  48   2.0000      -0.269942        -7.3455
  49   2.0000      -0.248527        -6.7628
  50   2.0000      -0.239607        -6.5200
  51   0.0000       0.054653         1.4872
  52   0.0000       0.070175         1.9096
  53   0.0000       0.089092         2.4243
  54   0.0000       0.096362         2.6221
  55   0.0000       0.102428         2.7872

MULLIKEN ATOMIC CHARGES
-----------------------
   0 C :    0.322187
   1 C :   -0.295960
   2 C :   -0.318200
   3 C :   -0.009577
   4 O :   -0.496852
   5 H :    0.171920
   6 H :    0.165178
   7 H :    0.154775
   8 H :    0.151265
   9 H :    0.155746
  10 H :    0.149949
  11 H :    0.152344
  12 C :   -0.028262
  13 H :    0.153421
  14 H :    0.157558
  15 O :   -0.569175
  16 C :    0.065310
  17 C :    0.119661
  18 C :   -0.300307
  19 C :   -0.022564
  20 O :   -0.524792
  21 H :    0.150899
  22 H :    0.146981
  23 O :   -0.639959
  24 H :    0.152765
  25 H :    0.144617
  26 H :    0.140778
  27 H :    0.151023
  28 H :    0.399272
Sum of atomic charges:    0.0000000

LOEWDIN ATOMIC CHARGES
----------------------
   0 C :    0.180289
   1 C :   -0.229537
   2 C :   -0.223701
   3 C :   -0.031306
   4 O :   -0.314611
   5 H :    0.115951
   6 H :    0.127771
   7 H :    0.120101
   8 H :    0.118863
   9 H :    0.111322
  10 H :    0.106032
  11 H :    0.107320
  12 C :   -0.047387
  13 H :    0.106864
  14 H :    0.110993
  15 O :   -0.334527
  16 C :    0.016584
  17 C :    0.042001
  18 C :   -0.236986
  19 C :   -0.032697
  20 O :   -0.327409
  21 H :    0.111415
  22 H :    0.105058
  23 O :   -0.433728
  24 H :    0.122209
  25 H :    0.111333
  26 H :    0.101114
  27 H :    0.106598
  28 H :    0.290071

  Mayer bond orders larger than 0.100000
B(  0-C ,  1-C ) :   0.9310 B(  0-C ,  4-O ) :   0.9241 B(  0-C ,  5-H ) :   0.9339
B(  0-C , 15-O ) :   0.8428 B(  1-C ,  2-C ) :   0.9523 B(  1-C ,  6-H ) :   0.9332
B(  1-C ,  7-H ) :   0.9328 B(  2-C ,  3-C ) :   0.9454 B(  2-C ,  8-H ) :   0.9445
B(  2-C ,  9-H ) :   0.9364 B(  3-C ,  4-O ) :   0.8413 B(  3-C , 10-H ) :   0.9343
B(  3-C , 11-H ) :   0.9387 B( 12-C , 13-H ) :   0.9280 B( 12-C , 14-H ) :   0.9106
B( 12-C , 15-O ) :   0.7831 B( 12-C , 16-C ) :   0.8939 B( 16-C , 17-C ) :   0.9136
B( 16-C , 20-O ) :   0.8557 B( 16-C , 21-H ) :   0.9307 B( 17-C , 18-C ) :   0.9015
B( 17-C , 22-H ) :   0.9306 B( 17-C , 23-O ) :   0.9391 B( 18-C , 19-C ) :   0.9386
B( 18-C , 24-H ) :   0.9443 B( 18-C , 25-H ) :   0.9434 B( 19-C , 20-O ) :   0.8300
B( 19-C , 26-H ) :   0.9347 B( 19-C , 27-H ) :   0.9382 B( 23-O , 28-H ) :   0.7222

FINAL SINGLE POINT ENERGY      -652.859558279827

DIPOLE MOMENT
-------------
                                X             Y             Z
Electronic contribution:     -1.78667      -3.51885      -1.86676
Nuclear contribution   :      2.92226       4.59756       2.14265
                        -----------------------------------------
Total Dipole Moment    :      1.13559       1.07870       0.27589
                        -----------------------------------------
Magnitude (a.u.)       :      1.59037
Magnitude (Debye)      :      4.04241

Rotational constants in cm-1:     0.052864     0.013890     0.012583
Rotational constants in MHz :  1584.811559   416.416604   377.215302

                             ****ORCA TERMINATED NORMALLY****
TOTAL RUN TIME: 0 days 0 hours 30 minutes 31 seconds 659 msec
