                         Program Version 4.2.0 -  RELEASE  -
|  1> # Test redundant internal optimization
|  2> #
|  3> ! RKS B3LYP  Opt TightSCF SmallPrint
|  4>
|  5> %basis
|  6>         Basis "6-31G"
|  7> end
|  8>
|  9> %geom
| 10> Constraints
| 11> { D 4  0  15  12  345.0   C } # D for Dihedral angle
| 12> { D 0  15  12  16  225.0   C } # D for Dihedral angle
| 13> { D 0  4  3  2   C } # D for Dihedral angle
| 14> { D 4  3  2  1   C } # D for Dihedral angle
| 15> { D 3  2  1  0   C } # D for Dihedral angle
| 16> { D 2  1  0  4   C } # D for Dihedral angle
| 17> { D 1  0  4  3   C } # D for Dihedral angle
| 18> { D 16  20  19  18   C } # D for Dihedral angle
| 19> { D 20  19  18  17   C } # D for Dihedral angle
| 20> { D 19  18  17  16   C } # D for Dihedral angle
| 21> { D 18  17  16  20   C } # D for Dihedral angle
| 22> { D 17  16  20  19   C } # D for Dihedral angle
| 23> { D 15  12  16  20   C } # D for Dihedral angle
| 24> end
| 25> end
| 26>
| 27>
| 28> #%pal
| 29> #nprocs 8
| 30> #end
| 31>
| 32> * xyz 0 1
| 33> C  -21.048   26.222   46.251
| 34> C  -20.361   27.558   45.944
| 35> C  -20.329   28.222   47.341
| 36> C  -20.110   27.022   48.296
| 37> O  -20.473   25.807   47.535
| 38> H  -20.833   25.428   45.533
| 39> H  -19.344   27.382   45.576
| 40> H  -20.898   28.157   45.201
| 41> H  -19.543   28.978   47.434
| 42> H  -21.289   28.710   47.548
| 43> H  -20.733   27.082   49.195
| 44> H  -19.064   26.913   48.597
| 45> C  -23.221   25.764   47.645
| 46> H  -22.499   25.081   48.110
| 47> H  -23.474   26.544   48.375
| 48> O  -22.586   26.394   46.375
| 49> C  -24.518   24.967   47.336
| 50> C  -24.226   23.749   46.453
| 51> C  -23.668   22.740   47.484
| 52> C  -24.491   23.051   48.760
| 53> O  -25.074   24.396   48.567
| 54> H  -25.269   25.649   46.933
| 55> O  -25.544   23.219   45.824
| 56> H  -23.521   23.964   45.643
| 57> H  -23.776   21.700   47.161
| 58> H  -22.602   22.929   47.656
| 59> H  -23.875   23.053   49.666
| 60> H  -25.323   22.355   48.900
| 61> H  -26.268   22.997   46.617
| 62> *
| 63>
| 64>                          ****END OF INPUT****
 Total Charge           Charge          ....    0
 Multiplicity           Mult            ....    1
 Number of Electrons    NEL             ....  102
FINAL SINGLE POINT ENERGY      -652.837970962549
FINAL SINGLE POINT ENERGY      -652.859962975296
FINAL SINGLE POINT ENERGY      -652.863413576191
FINAL SINGLE POINT ENERGY      -652.863979155098
FINAL SINGLE POINT ENERGY      -652.864068608183
FINAL SINGLE POINT ENERGY      -652.864082249332
                    ***********************HURRAY********************

CARTESIAN COORDINATES (ANGSTROEM)
---------------------------------
  C    -21.086337   26.154953   46.349721
  C    -20.522009   27.518187   45.952012
  C    -20.403295   28.221661   47.322298
  C    -20.019060   27.073490   48.279963
  O    -20.381496   25.815207   47.562726
  H    -20.889617   25.342082   45.645877
  H    -19.537874   27.381697   45.488753
  H    -21.177163   28.042687   45.253519
  H    -19.659508   29.024297   47.320044
  H    -21.369989   28.652439   47.600714
  H    -20.557397   27.101189   49.230667
  H    -18.944418   27.017082   48.473790
  C    -23.156894   25.742708   47.725287
  H    -22.451142   25.104270   48.264832
  H    -23.441916   26.571757   48.382994
  O    -22.532856   26.276280   46.517178
  C    -24.412617   24.967317   47.324576
  C    -24.157838   23.734020   46.446571
  C    -23.696822   22.691399   47.496414
  C    -24.546537   23.045744   48.742271
  O    -25.046909   24.427659   48.533734
  H    -25.134636   25.638421   46.851510
  O    -25.378610   23.316128   45.773051
  H    -23.434378   23.915733   45.653831
  H    -23.873970   21.674927   47.135617
  H    -22.626036   22.803101   47.699302
  H    -23.970432   23.013068   49.672120
  H    -25.423120   22.399816   48.851909
  H    -26.127126   23.365682   46.404722

 Multiplicity           Mult            ....    1
 Number of Electrons    NEL             ....  102
 Basis Dimension        Dim             ....  149

ORBITAL ENERGIES
----------------

  NO   OCC          E(Eh)            E(eV)
   0   2.0000     -19.154866      -521.2304
   1   2.0000     -19.141217      -520.8590
   2   2.0000     -19.140985      -520.8527
   3   2.0000     -19.131615      -520.5977
   4   2.0000     -10.283266      -279.8219
   5   2.0000     -10.235127      -278.5120
   6   2.0000     -10.232393      -278.4376
   7   2.0000     -10.228398      -278.3289
   8   2.0000     -10.227532      -278.3053
   9   2.0000     -10.224195      -278.2145
  10   2.0000     -10.192221      -277.3444
  11   2.0000     -10.188140      -277.2334
  12   2.0000     -10.183707      -277.1128
  13   2.0000      -1.058080       -28.7918
  14   2.0000      -1.032283       -28.0898
  15   2.0000      -1.000648       -27.2290
  16   2.0000      -0.993857       -27.0442
  17   2.0000      -0.794464       -21.6185
  18   2.0000      -0.775757       -21.1094
  19   2.0000      -0.765750       -20.8371
  20   2.0000      -0.733751       -19.9664
  21   2.0000      -0.671682       -18.2774
  22   2.0000      -0.606229       -16.4963
  23   2.0000      -0.599214       -16.3054
  24   2.0000      -0.593050       -16.1377
  25   2.0000      -0.575448       -15.6587
  26   2.0000      -0.519383       -14.1331
  27   2.0000      -0.517430       -14.0800
  28   2.0000      -0.501032       -13.6338
  29   2.0000      -0.489340       -13.3156
  30   2.0000      -0.471836       -12.8393
  31   2.0000      -0.456996       -12.4355
  32   2.0000      -0.450499       -12.2587
  33   2.0000      -0.433977       -11.8091
  34   2.0000      -0.418794       -11.3960
  35   2.0000      -0.413087       -11.2407
  36   2.0000      -0.406208       -11.0535
  37   2.0000      -0.388606       -10.5745
  38   2.0000      -0.376028       -10.2322
  39   2.0000      -0.364160        -9.9093
  40   2.0000      -0.363788        -9.8992
  41   2.0000      -0.356968        -9.7136
  42   2.0000      -0.351668        -9.5694
  43   2.0000      -0.337116        -9.1734
  44   2.0000      -0.326870        -8.8946
  45   2.0000      -0.305938        -8.3250
  46   2.0000      -0.301564        -8.2060
  47   2.0000      -0.270231        -7.3534
  48   2.0000      -0.267309        -7.2739
  49   2.0000      -0.257953        -7.0193
  50   2.0000      -0.238105        -6.4792
  51   0.0000       0.068725         1.8701
  52   0.0000       0.072597         1.9755
  53   0.0000       0.096019         2.6128
  54   0.0000       0.099171         2.6986
  55   0.0000       0.102250         2.7824

MULLIKEN ATOMIC CHARGES
-----------------------
   0 C :    0.299101
   1 C :   -0.256241
   2 C :   -0.306256
   3 C :   -0.015370
   4 O :   -0.515188
   5 H :    0.152145
   6 H :    0.144174
   7 H :    0.164296
   8 H :    0.147624
   9 H :    0.160640
  10 H :    0.148647
  11 H :    0.151901
  12 C :   -0.019070
  13 H :    0.161391
  14 H :    0.143356
  15 O :   -0.543855
  16 C :    0.061112
  17 C :    0.092295
  18 C :   -0.306002
  19 C :   -0.030474
  20 O :   -0.528581
  21 H :    0.164400
  22 O :   -0.604855
  23 H :    0.164794
  24 H :    0.159833
  25 H :    0.156387
  26 H :    0.144875
  27 H :    0.146965
  28 H :    0.361957
Sum of atomic charges:    0.0000000

LOEWDIN ATOMIC CHARGES
----------------------
   0 C :    0.181374
   1 C :   -0.217564
   2 C :   -0.217915
   3 C :   -0.030850
   4 O :   -0.321348
   5 H :    0.100619
   6 H :    0.113521
   7 H :    0.127740
   8 H :    0.117555
   9 H :    0.117940
  10 H :    0.105458
  11 H :    0.107765
  12 C :   -0.044965
  13 H :    0.110951
  14 H :    0.103783
  15 O :   -0.347052
  16 C :    0.015253
  17 C :    0.038505
  18 C :   -0.243604
  19 C :   -0.038315
  20 O :   -0.332144
  21 H :    0.116711
  22 O :   -0.416093
  23 H :    0.121941
  24 H :    0.125488
  25 H :    0.118210
  26 H :    0.103304
  27 H :    0.102639
  28 H :    0.281093

  Mayer bond orders larger than 0.100000
B(  0-C ,  1-C ) :   0.9390 B(  0-C ,  4-O ) :   0.9109 B(  0-C ,  5-H ) :   0.9251
B(  0-C , 15-O ) :   0.8397 B(  1-C ,  2-C ) :   0.9527 B(  1-C ,  6-H ) :   0.9359
B(  1-C ,  7-H ) :   0.9351 B(  2-C ,  3-C ) :   0.9556 B(  2-C ,  8-H ) :   0.9444
B(  2-C ,  9-H ) :   0.9448 B(  3-C ,  4-O ) :   0.8246 B(  3-C , 10-H ) :   0.9346
B(  3-C , 11-H ) :   0.9404 B( 12-C , 13-H ) :   0.9103 B( 12-C , 14-H ) :   0.9260
B( 12-C , 15-O ) :   0.8190 B( 12-C , 16-C ) :   0.8995 B( 16-C , 17-C ) :   0.9110
B( 16-C , 20-O ) :   0.8386 B( 16-C , 21-H ) :   0.9267 B( 17-C , 18-C ) :   0.9133
B( 17-C , 22-O ) :   0.8888 B( 17-C , 23-H ) :   0.9269 B( 18-C , 19-C ) :   0.9409
B( 18-C , 24-H ) :   0.9382 B( 18-C , 25-H ) :   0.9323 B( 19-C , 20-O ) :   0.8448
B( 19-C , 26-H ) :   0.9358 B( 19-C , 27-H ) :   0.9380 B( 22-O , 28-H ) :   0.7961

FINAL SINGLE POINT ENERGY      -652.864084683042

DIPOLE MOMENT
-------------
                                X             Y             Z
Electronic contribution:     -3.95530      -1.82787      -1.50371
Nuclear contribution   :      4.93375       2.26187       2.05745
                        -----------------------------------------
Total Dipole Moment    :      0.97845       0.43400       0.55374
                        -----------------------------------------
Magnitude (a.u.)       :      1.20514
Magnitude (Debye)      :      3.06321

Rotational constants in cm-1:     0.057692     0.013168     0.012451
Rotational constants in MHz :  1729.559059   394.775543   373.257217

                             ****ORCA TERMINATED NORMALLY****
TOTAL RUN TIME: 0 days 1 hours 1 minutes 14 seconds 46 msec
