                         Program Version 4.2.0 -  RELEASE  -
|  1> # Test redundant internal optimization
|  2> #
|  3> ! RKS B3LYP  Opt TightSCF SmallPrint
|  4>
|  5> %basis
|  6>         Basis "6-31G"
|  7> end
|  8>
|  9> %geom
| 10> Constraints
| 11> { D 4  0  15  12  150.0   C } # D for Dihedral angle
| 12> { D 0  15  12  16  240.0   C } # D for Dihedral angle
| 13> { D 0  4  3  2   C } # D for Dihedral angle
| 14> { D 4  3  2  1   C } # D for Dihedral angle
| 15> { D 3  2  1  0   C } # D for Dihedral angle
| 16> { D 2  1  0  4   C } # D for Dihedral angle
| 17> { D 1  0  4  3   C } # D for Dihedral angle
| 18> { D 16  20  19  18   C } # D for Dihedral angle
| 19> { D 20  19  18  17   C } # D for Dihedral angle
| 20> { D 19  18  17  16   C } # D for Dihedral angle
| 21> { D 18  17  16  20   C } # D for Dihedral angle
| 22> { D 17  16  20  19   C } # D for Dihedral angle
| 23> { D 15  12  16  20   C } # D for Dihedral angle
| 24> end
| 25> end
| 26>
| 27>
| 28> #%pal
| 29> #nprocs 8
| 30> #end
| 31>
| 32> * xyz 0 1
| 33> C  -21.048   26.222   46.251
| 34> C  -20.361   27.558   45.944
| 35> C  -20.329   28.222   47.341
| 36> C  -20.110   27.022   48.296
| 37> O  -20.473   25.807   47.535
| 38> H  -20.833   25.428   45.533
| 39> H  -19.344   27.382   45.576
| 40> H  -20.898   28.157   45.201
| 41> H  -19.543   28.978   47.434
| 42> H  -21.289   28.710   47.548
| 43> H  -20.733   27.082   49.195
| 44> H  -19.064   26.913   48.597
| 45> C  -23.210   27.459   45.431
| 46> H  -22.418   27.907   44.818
| 47> H  -23.942   26.994   44.759
| 48> O  -22.586   26.394   46.375
| 49> C  -23.933   28.596   46.204
| 50> C  -24.997   28.035   47.154
| 51> C  -24.134   27.563   48.349
| 52> C  -23.001   28.619   48.403
| 53> O  -22.992   29.294   47.087
| 54> H  -24.307   29.332   45.490
| 55> O  -25.968   29.165   47.593
| 56> H  -25.587   27.226   46.711
| 57> H  -24.698   27.508   49.285
| 58> H  -23.723   26.567   48.146
| 59> H  -22.018   28.171   48.584
| 60> H  -23.184   29.388   49.159
| 61> H  -25.399   29.987   48.041
| 62> *
| 63>
| 64>                          ****END OF INPUT****
 Total Charge           Charge          ....    0
 Multiplicity           Mult            ....    1
 Number of Electrons    NEL             ....  102
FINAL SINGLE POINT ENERGY      -652.794043240148
FINAL SINGLE POINT ENERGY      -652.834076000461
FINAL SINGLE POINT ENERGY      -652.850258260768
FINAL SINGLE POINT ENERGY      -652.853519198446
FINAL SINGLE POINT ENERGY      -652.854183932154
FINAL SINGLE POINT ENERGY      -652.854289007190
FINAL SINGLE POINT ENERGY      -652.854312128483
FINAL SINGLE POINT ENERGY      -652.854315562966
                    ***********************HURRAY********************

CARTESIAN COORDINATES (ANGSTROEM)
---------------------------------
  C    -21.030344   26.313613   46.155083
  C    -20.145885   27.525685   45.856178
  C    -20.006169   28.179867   47.257526
  C    -19.976417   26.955659   48.198446
  O    -20.533105   25.826552   47.408087
  H    -20.880925   25.494287   45.444581
  H    -19.182392   27.145971   45.499518
  H    -20.533259   28.216489   45.103765
  H    -19.096350   28.782428   47.341378
  H    -20.867163   28.825561   47.439084
  H    -20.574717   27.078710   49.105405
  H    -18.960769   26.664500   48.481219
  C    -23.192978   27.501525   45.487685
  H    -22.505267   28.036725   44.823804
  H    -23.925818   26.982981   44.854148
  O    -22.485101   26.490149   46.254673
  C    -23.950687   28.536067   46.326398
  C    -25.087343   27.993089   47.204187
  C    -24.332169   27.638284   48.511680
  C    -23.251965   28.737812   48.606855
  O    -23.131396   29.329261   47.243835
  H    -24.370919   29.249890   45.605066
  O    -26.113382   29.005186   47.410398
  H    -25.609211   27.143287   46.764749
  H    -25.011848   27.628074   49.367824
  H    -23.863974   26.657038   48.399026
  H    -22.281608   28.349340   48.915196
  H    -23.532459   29.557047   49.277626
  H    -25.688378   29.840922   47.696577

 Multiplicity           Mult            ....    1
 Number of Electrons    NEL             ....  102
 Basis Dimension        Dim             ....  149

ORBITAL ENERGIES
----------------

  NO   OCC          E(Eh)            E(eV)
   0   2.0000     -19.150203      -521.1035
   1   2.0000     -19.143541      -520.9222
   2   2.0000     -19.143051      -520.9089
   3   2.0000     -19.136415      -520.7283
   4   2.0000     -10.282199      -279.7929
   5   2.0000     -10.238104      -278.5930
   6   2.0000     -10.237789      -278.5844
   7   2.0000     -10.237020      -278.5635
   8   2.0000     -10.230219      -278.3784
   9   2.0000     -10.227594      -278.3070
  10   2.0000     -10.192041      -277.3395
  11   2.0000     -10.183666      -277.1117
  12   2.0000     -10.179487      -276.9979
  13   2.0000      -1.052012       -28.6267
  14   2.0000      -1.037105       -28.2211
  15   2.0000      -1.006363       -27.3845
  16   2.0000      -0.994583       -27.0640
  17   2.0000      -0.788084       -21.4449
  18   2.0000      -0.781016       -21.2525
  19   2.0000      -0.768935       -20.9238
  20   2.0000      -0.737071       -20.0567
  21   2.0000      -0.680307       -18.5121
  22   2.0000      -0.607270       -16.5247
  23   2.0000      -0.600860       -16.3502
  24   2.0000      -0.599677       -16.3180
  25   2.0000      -0.570406       -15.5215
  26   2.0000      -0.526620       -14.3301
  27   2.0000      -0.507611       -13.8128
  28   2.0000      -0.496777       -13.5180
  29   2.0000      -0.496326       -13.5057
  30   2.0000      -0.474680       -12.9167
  31   2.0000      -0.460673       -12.5356
  32   2.0000      -0.447790       -12.1850
  33   2.0000      -0.446218       -12.1422
  34   2.0000      -0.422904       -11.5078
  35   2.0000      -0.414782       -11.2868
  36   2.0000      -0.406599       -11.0641
  37   2.0000      -0.394237       -10.7277
  38   2.0000      -0.377603       -10.2751
  39   2.0000      -0.368418       -10.0252
  40   2.0000      -0.361391        -9.8340
  41   2.0000      -0.357255        -9.7214
  42   2.0000      -0.348247        -9.4763
  43   2.0000      -0.331939        -9.0325
  44   2.0000      -0.317106        -8.6289
  45   2.0000      -0.310234        -8.4419
  46   2.0000      -0.295890        -8.0516
  47   2.0000      -0.276214        -7.5162
  48   2.0000      -0.265060        -7.2126
  49   2.0000      -0.259387        -7.0583
  50   2.0000      -0.242395        -6.5959
  51   0.0000       0.061835         1.6826
  52   0.0000       0.080348         2.1864
  53   0.0000       0.091743         2.4965
  54   0.0000       0.099059         2.6955
  55   0.0000       0.100203         2.7267

MULLIKEN ATOMIC CHARGES
-----------------------
   0 C :    0.324725
   1 C :   -0.300168
   2 C :   -0.326069
   3 C :   -0.012856
   4 O :   -0.500207
   5 H :    0.150438
   6 H :    0.154243
   7 H :    0.150644
   8 H :    0.140150
   9 H :    0.197955
  10 H :    0.148437
  11 H :    0.144360
  12 C :   -0.009518
  13 H :    0.131954
  14 H :    0.143331
  15 O :   -0.531517
  16 C :    0.078169
  17 C :    0.077127
  18 C :   -0.292087
  19 C :   -0.036582
  20 O :   -0.527551
  21 H :    0.155563
  22 O :   -0.603257
  23 H :    0.157682
  24 H :    0.152799
  25 H :    0.186445
  26 H :    0.142312
  27 H :    0.141937
  28 H :    0.361539
Sum of atomic charges:   -0.0000000

LOEWDIN ATOMIC CHARGES
----------------------
   0 C :    0.185962
   1 C :   -0.230069
   2 C :   -0.228891
   3 C :   -0.030346
   4 O :   -0.305588
   5 H :    0.098453
   6 H :    0.120777
   7 H :    0.116519
   8 H :    0.114145
   9 H :    0.131775
  10 H :    0.100459
  11 H :    0.103956
  12 C :   -0.037031
  13 H :    0.099781
  14 H :    0.106971
  15 O :   -0.341420
  16 C :    0.007273
  17 C :    0.039058
  18 C :   -0.240538
  19 C :   -0.037226
  20 O :   -0.332250
  21 H :    0.115534
  22 O :   -0.416995
  23 H :    0.118866
  24 H :    0.121443
  25 H :    0.136705
  26 H :    0.102916
  27 H :    0.098760
  28 H :    0.281001

  Mayer bond orders larger than 0.100000
B(  0-C ,  1-C ) :   0.9285 B(  0-C ,  4-O ) :   0.9325 B(  0-C ,  5-H ) :   0.9291
B(  0-C , 15-O ) :   0.8375 B(  1-C ,  2-C ) :   0.9512 B(  1-C ,  6-H ) :   0.9327
B(  1-C ,  7-H ) :   0.9249 B(  2-C ,  3-C ) :   0.9544 B(  2-C ,  8-H ) :   0.9452
B(  2-C ,  9-H ) :   0.9072 B(  3-C ,  4-O ) :   0.8366 B(  3-C , 10-H ) :   0.9234
B(  3-C , 11-H ) :   0.9375 B( 12-C , 13-H ) :   0.9144 B( 12-C , 14-H ) :   0.9185
B( 12-C , 15-O ) :   0.8653 B( 12-C , 16-C ) :   0.8900 B( 16-C , 17-C ) :   0.9078
B( 16-C , 20-O ) :   0.8657 B( 16-C , 21-H ) :   0.9169 B( 17-C , 18-C ) :   0.9259
B( 17-C , 22-O ) :   0.8904 B( 17-C , 23-H ) :   0.9355 B( 18-C , 19-C ) :   0.9467
B( 18-C , 24-H ) :   0.9368 B( 18-C , 25-H ) :   0.9171 B( 19-C , 20-O ) :   0.8304
B( 19-C , 26-H ) :   0.9183 B( 19-C , 27-H ) :   0.9383 B( 22-O , 28-H ) :   0.7975

FINAL SINGLE POINT ENERGY      -652.854315254045

DIPOLE MOMENT
-------------
                                X             Y             Z
Electronic contribution:     -3.25608      -1.58113      -1.05626
Nuclear contribution   :      4.06876       2.21359       0.83471
                        -----------------------------------------
Total Dipole Moment    :      0.81268       0.63246      -0.22154
                        -----------------------------------------
Magnitude (a.u.)       :      1.05334
Magnitude (Debye)      :      2.67739

Rotational constants in cm-1:     0.051369     0.017140     0.016047
Rotational constants in MHz :  1539.997069   513.851102   481.071280

                             ****ORCA TERMINATED NORMALLY****
TOTAL RUN TIME: 0 days 0 hours 23 minutes 0 seconds 570 msec
