                         Program Version 4.2.1 -  RELEASE  -
|  1> # Test redundant internal optimization
|  2> #
|  3> ! RKS B3LYP  Opt TightSCF SmallPrint
|  4>
|  5> %basis
|  6>         Basis "6-31G"
|  7> end
|  8>
|  9> %geom
| 10> Constraints
| 11> { D 4  0  19  14  195.0   C } # D for Dihedral angle
| 12> { D 0  19  14  12  0.0   C } # D for Dihedral angle
| 13> { D 0  4  3  2   C } # D for Dihedral angle
| 14> { D 4  3  2  1   C } # D for Dihedral angle
| 15> { D 3  2  1  0   C } # D for Dihedral angle
| 16> { D 2  1  0  4   C } # D for Dihedral angle
| 17> { D 1  0  4  3   C } # D for Dihedral angle
| 18> { D 14  15  16  17   C } # D for Dihedral angle
| 19> { D 15  16  17  12   C } # D for Dihedral angle
| 20> { D 16  17  12  14   C } # D for Dihedral angle
| 21> { D 17  12  14  15   C } # D for Dihedral angle
| 22> { D 12  14  15  16   C } # D for Dihedral angle
| 23> end
| 24> end
| 25>
| 26>
| 27> #%pal
| 28> #nprocs 8
| 29> #end
| 30>
| 31> * xyz 0 1
| 32> C  -21.048   26.222   46.251
| 33> C  -20.361   27.558   45.944
| 34> C  -20.329   28.222   47.341
| 35> C  -20.110   27.022   48.296
| 36> O  -20.473   25.807   47.535
| 37> H  -20.833   25.428   45.533
| 38> H  -19.344   27.382   45.576
| 39> H  -20.898   28.157   45.201
| 40> H  -19.543   28.978   47.434
| 41> H  -21.289   28.710   47.548
| 42> H  -20.733   27.082   49.195
| 43> H  -19.064   26.913   48.597
| 44> C  -22.164   26.334   43.952
| 45> H  -22.609   26.670   43.002
| 46> C  -23.163   26.451   45.109
| 47> C  -24.039   25.195   44.896
| 48> C  -23.029   24.146   44.367
| 49> O  -21.849   24.902   43.891
| 50> H  -21.223   26.861   44.112
| 51> O  -22.472   26.381   46.366
| 52> H  -23.742   27.381   45.084
| 53> H  -24.541   24.866   45.812
| 54> H  -24.814   25.397   44.145
| 55> H  -23.433   23.553   43.539
| 56> H  -22.681   23.468   45.152
| 57> *
| 58>
| 59>                          ****END OF INPUT****
 Total Charge           Charge          ....    0
 Multiplicity           Mult            ....    1
 Number of Electrons    NEL             ....   86
FINAL SINGLE POINT ENERGY      -538.409885674126
FINAL SINGLE POINT ENERGY      -538.425927947654
FINAL SINGLE POINT ENERGY      -538.427527411287
FINAL SINGLE POINT ENERGY      -538.427845357325
FINAL SINGLE POINT ENERGY      -538.427909764697
FINAL SINGLE POINT ENERGY      -538.427926464796
FINAL SINGLE POINT ENERGY      -538.427928410680
                    ***********************HURRAY********************

CARTESIAN COORDINATES (ANGSTROEM)
---------------------------------
  C    -20.862227   26.216718   46.254161
  C    -20.161020   27.556128   46.024990
  C    -20.330270   28.252014   47.402300
  C    -20.227338   27.069293   48.388444
  O    -20.469973   25.848146   47.582531
  H    -20.581619   25.408895   45.575438
  H    -19.101286   27.376300   45.806288
  H    -20.587642   28.142370   45.208502
  H    -19.569662   29.017154   47.583160
  H    -21.317711   28.718629   47.460424
  H    -20.968831   27.110994   49.190627
  H    -19.228413   26.964367   48.822890
  C    -22.329991   26.315184   43.732055
  H    -22.968417   26.647471   42.899909
  C    -23.107398   26.430721   45.045645
  C    -23.998489   25.173753   44.989885
  C    -23.101649   24.124827   44.293266
  O    -22.022347   24.886026   43.612572
  H    -21.385656   26.854411   43.685757
  O    -22.317269   26.374759   46.279795
  H    -23.693225   27.354668   45.095814
  H    -24.299042   24.879903   45.996850
  H    -24.898846   25.377902   44.398054
  H    -23.640596   23.534521   43.545328
  H    -22.615083   23.450848   45.003312

 Multiplicity           Mult            ....    1
 Number of Electrons    NEL             ....   86
 Basis Dimension        Dim             ....  127

ORBITAL ENERGIES
----------------

  NO   OCC          E(Eh)            E(eV)
   0   2.0000     -19.138526      -520.7858
   1   2.0000     -19.135190      -520.6950
   2   2.0000     -19.132251      -520.6150
   3   2.0000     -10.272213      -279.5211
   4   2.0000     -10.242407      -278.7101
   5   2.0000     -10.231760      -278.4203
   6   2.0000     -10.224003      -278.2093
   7   2.0000     -10.220785      -278.1217
   8   2.0000     -10.183633      -277.1107
   9   2.0000     -10.183308      -277.1019
  10   2.0000     -10.183198      -277.0989
  11   2.0000      -1.047451       -28.5026
  12   2.0000      -1.019663       -27.7464
  13   2.0000      -0.982977       -26.7482
  14   2.0000      -0.786868       -21.4118
  15   2.0000      -0.777667       -21.1614
  16   2.0000      -0.741096       -20.1662
  17   2.0000      -0.724697       -19.7200
  18   2.0000      -0.617333       -16.7985
  19   2.0000      -0.602253       -16.3882
  20   2.0000      -0.592996       -16.1362
  21   2.0000      -0.563836       -15.3428
  22   2.0000      -0.521300       -14.1853
  23   2.0000      -0.501105       -13.6358
  24   2.0000      -0.484806       -13.1922
  25   2.0000      -0.483279       -13.1507
  26   2.0000      -0.451767       -12.2932
  27   2.0000      -0.448080       -12.1929
  28   2.0000      -0.426459       -11.6045
  29   2.0000      -0.412378       -11.2214
  30   2.0000      -0.405612       -11.0373
  31   2.0000      -0.385572       -10.4920
  32   2.0000      -0.373676       -10.1682
  33   2.0000      -0.367808       -10.0086
  34   2.0000      -0.361091        -9.8258
  35   2.0000      -0.351229        -9.5574
  36   2.0000      -0.347667        -9.4605
  37   2.0000      -0.318762        -8.6740
  38   2.0000      -0.306219        -8.3326
  39   2.0000      -0.293768        -7.9938
  40   2.0000      -0.255014        -6.9393
  41   2.0000      -0.244112        -6.6426
  42   2.0000      -0.243641        -6.6298
  43   0.0000       0.077352         2.1048
  44   0.0000       0.092907         2.5281
  45   0.0000       0.099641         2.7114
  46   0.0000       0.107598         2.9279
  47   0.0000       0.119428         3.2498

MULLIKEN ATOMIC CHARGES
-----------------------
   0 C :    0.290198
   1 C :   -0.271996
   2 C :   -0.299174
   3 C :    0.000263
   4 O :   -0.505891
   5 H :    0.173950
   6 H :    0.146582
   7 H :    0.137548
   8 H :    0.139817
   9 H :    0.157332
  10 H :    0.151893
  11 H :    0.140270
  12 C :   -0.040156
  13 H :    0.135821
  14 C :    0.086828
  15 C :   -0.285178
  16 C :   -0.012053
  17 O :   -0.525103
  18 H :    0.159139
  19 O :   -0.528845
  20 H :    0.139771
  21 H :    0.172062
  22 H :    0.136708
  23 H :    0.140747
  24 H :    0.159466
Sum of atomic charges:   -0.0000000

LOEWDIN ATOMIC CHARGES
----------------------
   0 C :    0.177440
   1 C :   -0.232350
   2 C :   -0.217205
   3 C :   -0.025420
   4 O :   -0.302141
   5 H :    0.112139
   6 H :    0.114819
   7 H :    0.109423
   8 H :    0.113255
   9 H :    0.116665
  10 H :    0.107863
  11 H :    0.101388
  12 C :   -0.055345
  13 H :    0.100095
  14 C :    0.041724
  15 C :   -0.228352
  16 C :   -0.031443
  17 O :   -0.335816
  18 H :    0.114365
  19 O :   -0.340448
  20 H :    0.105167
  21 H :    0.132589
  22 H :    0.109346
  23 H :    0.101917
  24 H :    0.110326

  Mayer bond orders larger than 0.100000
B(  0-C ,  1-C ) :   0.9287 B(  0-C ,  4-O ) :   0.9237 B(  0-C ,  5-H ) :   0.9026
B(  0-C , 19-O ) :   0.8170 B(  1-C ,  2-C ) :   0.9490 B(  1-C ,  6-H ) :   0.9341
B(  1-C ,  7-H ) :   0.9335 B(  2-C ,  3-C ) :   0.9556 B(  2-C ,  8-H ) :   0.9450
B(  2-C ,  9-H ) :   0.9449 B(  3-C ,  4-O ) :   0.8371 B(  3-C , 10-H ) :   0.9350
B(  3-C , 11-H ) :   0.9399 B( 12-C , 13-H ) :   0.9141 B( 12-C , 14-C ) :   0.9255
B( 12-C , 17-O ) :   0.8548 B( 12-C , 18-H ) :   0.9234 B( 14-C , 15-C ) :   0.9321
B( 14-C , 19-O ) :   0.8554 B( 14-C , 20-H ) :   0.9288 B( 15-C , 16-C ) :   0.9481
B( 15-C , 21-H ) :   0.9355 B( 15-C , 22-H ) :   0.9378 B( 16-C , 17-O ) :   0.8403
B( 16-C , 23-H ) :   0.9357 B( 16-C , 24-H ) :   0.9360

FINAL SINGLE POINT ENERGY      -538.427928969639

DIPOLE MOMENT
-------------
                                X             Y             Z
Electronic contribution:      0.36187      -2.87749       0.30787
Nuclear contribution   :     -0.76615       3.87537      -0.62170
                        -----------------------------------------
Total Dipole Moment    :     -0.40427       0.99787      -0.31383
                        -----------------------------------------
Magnitude (a.u.)       :      1.12146
Magnitude (Debye)      :      2.85052

Rotational constants in cm-1:     0.081897     0.021948     0.021108
Rotational constants in MHz :  2455.224689   657.999458   632.792885

                             ****ORCA TERMINATED NORMALLY****
TOTAL RUN TIME: 0 days 0 hours 17 minutes 0 seconds 889 msec
