                         Program Version 4.2.0 -  RELEASE  -
|  1> # Test redundant internal optimization
|  2> #
|  3> ! RKS B3LYP  Opt TightSCF SmallPrint
|  4>
|  5> %basis
|  6>         Basis "6-31G"
|  7> end
|  8>
|  9> %geom
| 10> Constraints
| 11> { D 4  0  15  12  210.0   C } # D for Dihedral angle
| 12> { D 0  15  12  16  60.0   C } # D for Dihedral angle
| 13> { D 0  4  3  2   C } # D for Dihedral angle
| 14> { D 4  3  2  1   C } # D for Dihedral angle
| 15> { D 3  2  1  0   C } # D for Dihedral angle
| 16> { D 2  1  0  4   C } # D for Dihedral angle
| 17> { D 1  0  4  3   C } # D for Dihedral angle
| 18> { D 16  20  19  18   C } # D for Dihedral angle
| 19> { D 20  19  18  17   C } # D for Dihedral angle
| 20> { D 19  18  17  16   C } # D for Dihedral angle
| 21> { D 18  17  16  20   C } # D for Dihedral angle
| 22> { D 17  16  20  19   C } # D for Dihedral angle
| 23> { D 15  12  16  20   C } # D for Dihedral angle
| 24> end
| 25> end
| 26>
| 27>
| 28> #%pal
| 29> #nprocs 8
| 30> #end
| 31>
| 32> * xyz 0 1
| 33> C  -21.048   26.222   46.251
| 34> C  -20.361   27.558   45.944
| 35> C  -20.329   28.222   47.341
| 36> C  -20.110   27.022   48.296
| 37> O  -20.473   25.807   47.535
| 38> H  -20.833   25.428   45.533
| 39> H  -19.344   27.382   45.576
| 40> H  -20.898   28.157   45.201
| 41> H  -19.543   28.978   47.434
| 42> H  -21.289   28.710   47.548
| 43> H  -20.733   27.082   49.195
| 44> H  -19.064   26.913   48.597
| 45> C  -23.389   26.110   45.076
| 46> H  -24.457   26.268   45.269
| 47> H  -23.080   26.796   44.276
| 48> O  -22.586   26.394   46.375
| 49> C  -23.196   24.659   44.556
| 50> C  -23.761   23.634   45.545
| 51> C  -25.277   23.706   45.241
| 52> C  -25.317   23.956   43.712
| 53> O  -23.975   24.446   43.331
| 54> H  -22.147   24.508   44.298
| 55> O  -23.204   22.220   45.223
| 56> H  -23.526   23.867   46.589
| 57> H  -25.811   22.796   45.529
| 58> H  -25.729   24.546   45.782
| 59> H  -26.066   24.702   43.429
| 60> H  -25.499   23.039   43.144
| 61> H  -23.429   21.964   44.181
| 62> *
| 63>
| 64>                          ****END OF INPUT****
 Total Charge           Charge          ....    0
 Multiplicity           Mult            ....    1
 Number of Electrons    NEL             ....  102
FINAL SINGLE POINT ENERGY      -652.834728882843
FINAL SINGLE POINT ENERGY      -652.856393200924
FINAL SINGLE POINT ENERGY      -652.859943940378
FINAL SINGLE POINT ENERGY      -652.860526562001
FINAL SINGLE POINT ENERGY      -652.860626449209
FINAL SINGLE POINT ENERGY      -652.860637390456
                    ***********************HURRAY********************

CARTESIAN COORDINATES (ANGSTROEM)
---------------------------------
  C    -21.034664   26.179297   46.196132
  C    -20.333283   27.506937   45.917826
  C    -20.414317   28.206138   47.295323
  C    -20.268536   27.033662   48.287626
  O    -20.572219   25.805831   47.503707
  H    -20.778227   25.362645   45.519144
  H    -19.291231   27.317836   45.633472
  H    -20.812656   28.079194   45.118179
  H    -19.637645   28.965255   47.427999
  H    -21.391504   28.684909   47.406480
  H    -20.963878   27.090229   49.128621
  H    -19.248401   26.917451   48.665118
  C    -23.274466   26.102421   45.076224
  H    -24.298057   26.338820   45.377166
  H    -23.000177   26.779542   44.254374
  O    -22.478845   26.372274   46.266377
  C    -23.180085   24.661019   44.559051
  C    -23.709159   23.587192   45.519016
  C    -25.238547   23.700686   45.301527
  C    -25.362169   24.039679   43.794974
  O    -24.027200   24.533825   43.364315
  H    -22.163998   24.421054   44.235198
  O    -23.204539   22.272602   45.153552
  H    -23.399706   23.745772   46.551167
  H    -25.736495   22.765519   45.570043
  H    -25.653155   24.498797   45.926434
  H    -26.109431   24.812838   43.590910
  H    -25.590976   23.162800   43.181540
  H    -23.300436   22.147775   44.185507

 Multiplicity           Mult            ....    1
 Number of Electrons    NEL             ....  102
 Basis Dimension        Dim             ....  149

ORBITAL ENERGIES
----------------

  NO   OCC          E(Eh)            E(eV)
   0   2.0000     -19.147911      -521.0411
   1   2.0000     -19.143473      -520.9204
   2   2.0000     -19.139595      -520.8148
   3   2.0000     -19.136276      -520.7245
   4   2.0000     -10.279798      -279.7275
   5   2.0000     -10.236801      -278.5575
   6   2.0000     -10.235590      -278.5246
   7   2.0000     -10.234169      -278.4859
   8   2.0000     -10.233780      -278.4753
   9   2.0000     -10.223939      -278.2075
  10   2.0000     -10.188974      -277.2561
  11   2.0000     -10.186079      -277.1773
  12   2.0000     -10.185189      -277.1531
  13   2.0000      -1.052731       -28.6463
  14   2.0000      -1.037162       -28.2226
  15   2.0000      -1.005471       -27.3602
  16   2.0000      -0.994291       -27.0560
  17   2.0000      -0.787129       -21.4189
  18   2.0000      -0.779692       -21.2165
  19   2.0000      -0.767167       -20.8757
  20   2.0000      -0.734251       -19.9800
  21   2.0000      -0.676701       -18.4140
  22   2.0000      -0.607760       -16.5380
  23   2.0000      -0.603555       -16.4236
  24   2.0000      -0.598434       -16.2842
  25   2.0000      -0.571132       -15.5413
  26   2.0000      -0.523577       -14.2473
  27   2.0000      -0.519829       -14.1453
  28   2.0000      -0.496337       -13.5060
  29   2.0000      -0.487698       -13.2709
  30   2.0000      -0.469069       -12.7640
  31   2.0000      -0.461614       -12.5611
  32   2.0000      -0.454418       -12.3653
  33   2.0000      -0.434957       -11.8358
  34   2.0000      -0.424054       -11.5391
  35   2.0000      -0.413580       -11.2541
  36   2.0000      -0.402216       -10.9449
  37   2.0000      -0.393605       -10.7105
  38   2.0000      -0.374510       -10.1909
  39   2.0000      -0.368444       -10.0259
  40   2.0000      -0.364900        -9.9294
  41   2.0000      -0.356370        -9.6973
  42   2.0000      -0.353556        -9.6208
  43   2.0000      -0.333299        -9.0695
  44   2.0000      -0.313091        -8.5196
  45   2.0000      -0.311766        -8.4836
  46   2.0000      -0.306180        -8.3316
  47   2.0000      -0.271164        -7.3787
  48   2.0000      -0.265592        -7.2271
  49   2.0000      -0.256660        -6.9841
  50   2.0000      -0.240029        -6.5315
  51   0.0000       0.062296         1.6951
  52   0.0000       0.073569         2.0019
  53   0.0000       0.091881         2.5002
  54   0.0000       0.096675         2.6307
  55   0.0000       0.099651         2.7117

MULLIKEN ATOMIC CHARGES
-----------------------
   0 C :    0.283294
   1 C :   -0.259994
   2 C :   -0.298355
   3 C :   -0.002021
   4 O :   -0.501614
   5 H :    0.147411
   6 H :    0.144602
   7 H :    0.144308
   8 H :    0.141579
   9 H :    0.162063
  10 H :    0.153542
  11 H :    0.142126
  12 C :   -0.015408
  13 H :    0.152320
  14 H :    0.141824
  15 O :   -0.514120
  16 C :    0.037856
  17 C :    0.090086
  18 C :   -0.301545
  19 C :   -0.038478
  20 O :   -0.526903
  21 H :    0.161299
  22 O :   -0.602067
  23 H :    0.184012
  24 H :    0.163176
  25 H :    0.152140
  26 H :    0.148449
  27 H :    0.149440
  28 H :    0.360979
Sum of atomic charges:   -0.0000000

LOEWDIN ATOMIC CHARGES
----------------------
   0 C :    0.175572
   1 C :   -0.225841
   2 C :   -0.216497
   3 C :   -0.025401
   4 O :   -0.306743
   5 H :    0.099685
   6 H :    0.113436
   7 H :    0.115766
   8 H :    0.114154
   9 H :    0.119188
  10 H :    0.109026
  11 H :    0.102666
  12 C :   -0.043503
  13 H :    0.113936
  14 H :    0.099409
  15 O :   -0.333321
  16 C :    0.000739
  17 C :    0.037663
  18 C :   -0.241066
  19 C :   -0.040160
  20 O :   -0.330531
  21 H :    0.110873
  22 O :   -0.413742
  23 H :    0.131027
  24 H :    0.127410
  25 H :    0.116885
  26 H :    0.104830
  27 H :    0.103863
  28 H :    0.280677

  Mayer bond orders larger than 0.100000
B(  0-C ,  1-C ) :   0.9338 B(  0-C ,  4-O ) :   0.9363 B(  0-C ,  5-H ) :   0.9137
B(  0-C , 15-O ) :   0.8275 B(  1-C ,  2-C ) :   0.9537 B(  1-C ,  6-H ) :   0.9348
B(  1-C ,  7-H ) :   0.9375 B(  2-C ,  3-C ) :   0.9555 B(  2-C ,  8-H ) :   0.9451
B(  2-C ,  9-H ) :   0.9438 B(  3-C ,  4-O ) :   0.8355 B(  3-C , 10-H ) :   0.9346
B(  3-C , 11-H ) :   0.9397 B( 12-C , 13-H ) :   0.9396 B( 12-C , 14-H ) :   0.9162
B( 12-C , 15-O ) :   0.8513 B( 12-C , 16-C ) :   0.8769 B( 16-C , 17-C ) :   0.9060
B( 16-C , 20-O ) :   0.8346 B( 16-C , 21-H ) :   0.9225 B( 17-C , 18-C ) :   0.9137
B( 17-C , 22-O ) :   0.8884 B( 17-C , 23-H ) :   0.9220 B( 18-C , 19-C ) :   0.9416
B( 18-C , 24-H ) :   0.9376 B( 18-C , 25-H ) :   0.9331 B( 19-C , 20-O ) :   0.8425
B( 19-C , 26-H ) :   0.9350 B( 19-C , 27-H ) :   0.9374 B( 22-O , 28-H ) :   0.7970

FINAL SINGLE POINT ENERGY      -652.860638906693

DIPOLE MOMENT
-------------
                                X             Y             Z
Electronic contribution:      0.20489      -4.05834      -0.88889
Nuclear contribution   :     -0.51864       5.00917       0.51539
                        -----------------------------------------
Total Dipole Moment    :     -0.31375       0.95084      -0.37350
                        -----------------------------------------
Magnitude (a.u.)       :      1.06866
Magnitude (Debye)      :      2.71632

Rotational constants in cm-1:     0.060996     0.012566     0.011657
Rotational constants in MHz :  1828.621046   376.704500   349.465620

                             ****ORCA TERMINATED NORMALLY****
TOTAL RUN TIME: 0 days 0 hours 37 minutes 21 seconds 4 msec
