                         Program Version 4.2.0 -  RELEASE  -
|  1> # Test redundant internal optimization
|  2> #
|  3> ! RKS B3LYP  Opt TightSCF SmallPrint
|  4>
|  5> %basis
|  6>         Basis "6-31G"
|  7> end
|  8>
|  9> %geom
| 10> Constraints
| 11> { D 4  0  15  12  150.0   C } # D for Dihedral angle
| 12> { D 0  15  12  16  210.0   C } # D for Dihedral angle
| 13> { D 0  4  3  2   C } # D for Dihedral angle
| 14> { D 4  3  2  1   C } # D for Dihedral angle
| 15> { D 3  2  1  0   C } # D for Dihedral angle
| 16> { D 2  1  0  4   C } # D for Dihedral angle
| 17> { D 1  0  4  3   C } # D for Dihedral angle
| 18> { D 16  20  19  18   C } # D for Dihedral angle
| 19> { D 20  19  18  17   C } # D for Dihedral angle
| 20> { D 19  18  17  16   C } # D for Dihedral angle
| 21> { D 18  17  16  20   C } # D for Dihedral angle
| 22> { D 17  16  20  19   C } # D for Dihedral angle
| 23> { D 15  12  16  20   C } # D for Dihedral angle
| 24> end
| 25> end
| 26>
| 27>
| 28> #%pal
| 29> #nprocs 8
| 30> #end
| 31>
| 32> * xyz 0 1
| 33> C  -21.048   26.222   46.251
| 34> C  -20.361   27.558   45.944
| 35> C  -20.329   28.222   47.341
| 36> C  -20.110   27.022   48.296
| 37> O  -20.473   25.807   47.535
| 38> H  -20.833   25.428   45.533
| 39> H  -19.344   27.382   45.576
| 40> H  -20.898   28.157   45.201
| 41> H  -19.543   28.978   47.434
| 42> H  -21.289   28.710   47.548
| 43> H  -20.733   27.082   49.195
| 44> H  -19.064   26.913   48.597
| 45> C  -23.210   27.459   45.431
| 46> H  -22.470   28.244   45.232
| 47> H  -23.493   27.004   44.474
| 48> O  -22.586   26.394   46.375
| 49> C  -24.478   28.124   46.033
| 50> C  -24.140   28.931   47.292
| 51> C  -23.558   30.230   46.685
| 52> C  -24.400   30.425   45.399
| 53> O  -25.025   29.119   45.103
| 54> H  -25.248   27.364   46.176
| 55> H  -25.054   29.144   47.858
| 56> O  -23.141   28.203   48.232
| 57> H  -23.629   31.084   47.365
| 58> H  -22.500   30.087   46.437
| 59> H  -23.792   30.735   44.543
| 60> H  -25.210   31.147   45.537
| 61> H  -22.218   27.980   47.686
| 62> *
| 63>
| 64>                          ****END OF INPUT****
 Total Charge           Charge          ....    0
 Multiplicity           Mult            ....    1
 Number of Electrons    NEL             ....  102
FINAL SINGLE POINT ENERGY      -652.792046999182
FINAL SINGLE POINT ENERGY      -652.829763951797
FINAL SINGLE POINT ENERGY      -652.844822666670
FINAL SINGLE POINT ENERGY      -652.849679919976
FINAL SINGLE POINT ENERGY      -652.852779000603
FINAL SINGLE POINT ENERGY      -652.855335470092
FINAL SINGLE POINT ENERGY      -652.857216968291
FINAL SINGLE POINT ENERGY      -652.858521044681
FINAL SINGLE POINT ENERGY      -652.859220048279
FINAL SINGLE POINT ENERGY      -652.859338583287
FINAL SINGLE POINT ENERGY      -652.859356027723
FINAL SINGLE POINT ENERGY      -652.859361409900
                    ***********************HURRAY********************

CARTESIAN COORDINATES (ANGSTROEM)
---------------------------------
  C    -21.080908   26.284545   46.257831
  C    -20.135768   27.431595   45.895617
  C    -20.077984   28.235076   47.223403
  C    -20.159605   27.129036   48.294976
  O    -20.697825   25.927704   47.587895
  H    -20.947166   25.390539   45.643579
  H    -19.160179   26.989638   45.666110
  H    -20.438334   28.030448   45.033262
  H    -19.162195   28.827747   47.307138
  H    -20.937789   28.901388   47.317681
  H    -20.831861   27.383479   49.116726
  H    -19.183326   26.836997   48.690181
  C    -23.152960   27.521623   45.344963
  H    -22.451781   28.318181   45.075780
  H    -23.468465   27.013136   44.427619
  O    -22.531654   26.562130   46.264531
  C    -24.382813   28.126842   46.038993
  C    -24.124936   28.929602   47.324011
  C    -23.665501   30.301502   46.753265
  C    -24.517124   30.449141   45.474324
  O    -25.016874   29.086538   45.139284
  H    -25.113437   27.330392   46.209808
  H    -25.080823   29.055795   47.847991
  O    -23.171071   28.346629   48.238328
  H    -23.826393   31.116225   47.464866
  H    -22.595246   30.257196   46.528105
  H    -23.951474   30.838655   44.621614
  H    -25.400492   31.076407   45.625267
  H    -22.913018   27.456813   47.895855

 Multiplicity           Mult            ....    1
 Number of Electrons    NEL             ....  102
 Basis Dimension        Dim             ....  149

ORBITAL ENERGIES
----------------

  NO   OCC          E(Eh)            E(eV)
   0   2.0000     -19.158078      -521.3178
   1   2.0000     -19.149852      -521.0940
   2   2.0000     -19.144919      -520.9597
   3   2.0000     -19.125283      -520.4254
   4   2.0000     -10.290663      -280.0232
   5   2.0000     -10.240168      -278.6491
   6   2.0000     -10.237831      -278.5855
   7   2.0000     -10.237580      -278.5787
   8   2.0000     -10.232071      -278.4288
   9   2.0000     -10.227684      -278.3094
  10   2.0000     -10.199254      -277.5358
  11   2.0000     -10.189531      -277.2712
  12   2.0000     -10.187210      -277.2081
  13   2.0000      -1.061033       -28.8722
  14   2.0000      -1.031057       -28.0565
  15   2.0000      -1.007060       -27.4035
  16   2.0000      -0.998139       -27.1607
  17   2.0000      -0.793774       -21.5997
  18   2.0000      -0.777999       -21.1704
  19   2.0000      -0.772835       -21.0299
  20   2.0000      -0.738129       -20.0855
  21   2.0000      -0.684045       -18.6138
  22   2.0000      -0.608061       -16.5462
  23   2.0000      -0.602407       -16.3923
  24   2.0000      -0.595216       -16.1967
  25   2.0000      -0.580333       -15.7917
  26   2.0000      -0.532317       -14.4851
  27   2.0000      -0.512260       -13.9393
  28   2.0000      -0.506919       -13.7940
  29   2.0000      -0.496717       -13.5163
  30   2.0000      -0.473291       -12.8789
  31   2.0000      -0.457042       -12.4367
  32   2.0000      -0.450495       -12.2586
  33   2.0000      -0.440545       -11.9878
  34   2.0000      -0.432335       -11.7644
  35   2.0000      -0.416938       -11.3455
  36   2.0000      -0.411947       -11.2097
  37   2.0000      -0.391022       -10.6403
  38   2.0000      -0.384084       -10.4515
  39   2.0000      -0.374057       -10.1786
  40   2.0000      -0.366303        -9.9676
  41   2.0000      -0.361121        -9.8266
  42   2.0000      -0.351889        -9.5754
  43   2.0000      -0.342059        -9.3079
  44   2.0000      -0.324024        -8.8171
  45   2.0000      -0.310100        -8.4382
  46   2.0000      -0.295385        -8.0378
  47   2.0000      -0.278205        -7.5703
  48   2.0000      -0.264630        -7.2009
  49   2.0000      -0.254354        -6.9213
  50   2.0000      -0.247420        -6.7327
  51   0.0000       0.056896         1.5482
  52   0.0000       0.065921         1.7938
  53   0.0000       0.091633         2.4935
  54   0.0000       0.092601         2.5198
  55   0.0000       0.106943         2.9101

MULLIKEN ATOMIC CHARGES
-----------------------
   0 C :    0.325079
   1 C :   -0.301154
   2 C :   -0.321180
   3 C :   -0.024053
   4 O :   -0.503159
   5 H :    0.158619
   6 H :    0.158905
   7 H :    0.144316
   8 H :    0.142430
   9 H :    0.184475
  10 H :    0.175482
  11 H :    0.146900
  12 C :   -0.002027
  13 H :    0.130246
  14 H :    0.158885
  15 O :   -0.559881
  16 C :    0.043551
  17 C :    0.116613
  18 C :   -0.308998
  19 C :   -0.020409
  20 O :   -0.518509
  21 H :    0.167481
  22 H :    0.149256
  23 O :   -0.648210
  24 H :    0.154486
  25 H :    0.150609
  26 H :    0.141250
  27 H :    0.152967
  28 H :    0.406029
Sum of atomic charges:   -0.0000000

LOEWDIN ATOMIC CHARGES
----------------------
   0 C :    0.185003
   1 C :   -0.231957
   2 C :   -0.226826
   3 C :   -0.031089
   4 O :   -0.305068
   5 H :    0.104846
   6 H :    0.123828
   7 H :    0.114119
   8 H :    0.115739
   9 H :    0.122266
  10 H :    0.118130
  11 H :    0.105717
  12 C :   -0.041501
  13 H :    0.095422
  14 H :    0.110904
  15 O :   -0.348149
  16 C :    0.016701
  17 C :    0.041373
  18 C :   -0.234774
  19 C :   -0.032072
  20 O :   -0.320838
  21 H :    0.117506
  22 H :    0.103982
  23 O :   -0.435902
  24 H :    0.122374
  25 H :    0.110736
  26 H :    0.101345
  27 H :    0.107517
  28 H :    0.290666

  Mayer bond orders larger than 0.100000
B(  0-C ,  1-C ) :   0.9298 B(  0-C ,  4-O ) :   0.9437 B(  0-C ,  5-H ) :   0.9276
B(  0-C , 15-O ) :   0.7987 B(  1-C ,  2-C ) :   0.9489 B(  1-C ,  6-H ) :   0.9316
B(  1-C ,  7-H ) :   0.9274 B(  2-C ,  3-C ) :   0.9523 B(  2-C ,  8-H ) :   0.9453
B(  2-C ,  9-H ) :   0.9134 B(  3-C ,  4-O ) :   0.8192 B(  3-C , 10-H ) :   0.9263
B(  3-C , 11-H ) :   0.9401 B( 12-C , 13-H ) :   0.9119 B( 12-C , 14-H ) :   0.9244
B( 12-C , 15-O ) :   0.8000 B( 12-C , 16-C ) :   0.9059 B( 16-C , 17-C ) :   0.9155
B( 16-C , 20-O ) :   0.8591 B( 16-C , 21-H ) :   0.9269 B( 17-C , 18-C ) :   0.9124
B( 17-C , 22-H ) :   0.9251 B( 17-C , 23-O ) :   0.9150 B( 18-C , 19-C ) :   0.9396
B( 18-C , 24-H ) :   0.9441 B( 18-C , 25-H ) :   0.9383 B( 19-C , 20-O ) :   0.8344
B( 19-C , 26-H ) :   0.9344 B( 19-C , 27-H ) :   0.9377 B( 23-O , 28-H ) :   0.7061

FINAL SINGLE POINT ENERGY      -652.859361041783

DIPOLE MOMENT
-------------
                                X             Y             Z
Electronic contribution:     -3.61963      -5.23658       0.54509
Nuclear contribution   :      4.52962       6.16379      -1.25632
                        -----------------------------------------
Total Dipole Moment    :      0.90999       0.92721      -0.71124
                        -----------------------------------------
Magnitude (a.u.)       :      1.48110
Magnitude (Debye)      :      3.76465

Rotational constants in cm-1:     0.050162     0.017072     0.015948
Rotational constants in MHz :  1503.804602   511.802029   478.107581

                             ****ORCA TERMINATED NORMALLY****
TOTAL RUN TIME: 0 days 0 hours 44 minutes 16 seconds 295 msec
