                         Program Version 4.2.0 -  RELEASE  -
|  1> # Test redundant internal optimization
|  2> #
|  3> ! RKS B3LYP  Opt TightSCF SmallPrint
|  4>
|  5> %basis
|  6>         Basis "6-31G"
|  7> end
|  8>
|  9> %geom
| 10> Constraints
| 11> { D 4  0  15  12  150.0   C } # D for Dihedral angle
| 12> { D 0  15  12  16  105.0   C } # D for Dihedral angle
| 13> { D 0  4  3  2   C } # D for Dihedral angle
| 14> { D 4  3  2  1   C } # D for Dihedral angle
| 15> { D 3  2  1  0   C } # D for Dihedral angle
| 16> { D 2  1  0  4   C } # D for Dihedral angle
| 17> { D 1  0  4  3   C } # D for Dihedral angle
| 18> { D 16  20  19  18   C } # D for Dihedral angle
| 19> { D 20  19  18  17   C } # D for Dihedral angle
| 20> { D 19  18  17  16   C } # D for Dihedral angle
| 21> { D 18  17  16  20   C } # D for Dihedral angle
| 22> { D 17  16  20  19   C } # D for Dihedral angle
| 23> { D 15  12  16  20   C } # D for Dihedral angle
| 24> end
| 25> end
| 26>
| 27>
| 28> #%pal
| 29> #nprocs 8
| 30> #end
| 31>
| 32> * xyz 0 1
| 33> C  -21.048   26.222   46.251
| 34> C  -20.361   27.558   45.944
| 35> C  -20.329   28.222   47.341
| 36> C  -20.110   27.022   48.296
| 37> O  -20.473   25.807   47.535
| 38> H  -20.833   25.428   45.533
| 39> H  -19.344   27.382   45.576
| 40> H  -20.898   28.157   45.201
| 41> H  -19.543   28.978   47.434
| 42> H  -21.289   28.710   47.548
| 43> H  -20.733   27.082   49.195
| 44> H  -19.064   26.913   48.597
| 45> C  -23.210   27.459   45.431
| 46> H  -23.913   28.079   46.001
| 47> H  -22.429   28.113   45.022
| 48> O  -22.586   26.394   46.375
| 49> C  -23.973   26.827   44.235
| 50> C  -25.192   26.028   44.712
| 51> C  -26.221   27.153   44.974
| 52> C  -25.900   28.189   43.867
| 53> O  -24.541   27.874   43.379
| 54> H  -23.271   26.259   43.622
| 55> O  -25.686   25.085   43.580
| 56> H  -24.988   25.422   45.601
| 57> H  -27.256   26.800   44.928
| 58> H  -26.059   27.586   45.968
| 59> H  -25.919   29.219   44.239
| 60> H  -26.577   28.109   43.012
| 61> H  -25.897   25.671   42.678
| 62> *
| 63>
| 64>                          ****END OF INPUT****
 Total Charge           Charge          ....    0
 Multiplicity           Mult            ....    1
 Number of Electrons    NEL             ....  102
FINAL SINGLE POINT ENERGY      -652.825920060304
FINAL SINGLE POINT ENERGY      -652.849334068677
FINAL SINGLE POINT ENERGY      -652.854126587156
FINAL SINGLE POINT ENERGY      -652.856395879008
FINAL SINGLE POINT ENERGY      -652.856641190066
FINAL SINGLE POINT ENERGY      -652.856694228457
FINAL SINGLE POINT ENERGY      -652.856699941695
                    ***********************HURRAY********************

CARTESIAN COORDINATES (ANGSTROEM)
---------------------------------
  C    -21.127230   26.296437   46.171030
  C    -20.224746   27.504529   45.920641
  C    -20.227378   28.203127   47.305214
  C    -20.284039   27.011031   48.283826
  O    -20.753180   25.853178   47.483372
  H    -20.968232   25.451555   45.497044
  H    -19.222771   27.130524   45.681164
  H    -20.533438   28.158689   45.102411
  H    -19.342022   28.827576   47.457272
  H    -21.114158   28.837266   47.409332
  H    -20.977868   27.167315   49.113579
  H    -19.300826   26.740183   48.679230
  C    -23.197683   27.597376   45.392696
  H    -23.868143   28.161861   46.050441
  H    -22.486244   28.303521   44.953587
  O    -22.562111   26.587061   46.222771
  C    -23.983823   26.926869   44.263624
  C    -25.142181   26.028622   44.721905
  C    -26.251110   27.071515   45.006273
  C    -26.010589   28.153719   43.924921
  O    -24.624972   27.950303   43.427995
  H    -23.298191   26.370811   43.615945
  O    -25.526959   25.103387   43.666929
  H    -24.885053   25.410743   45.580737
  H    -27.240199   26.611995   44.936709
  H    -26.136386   27.483051   46.014693
  H    -26.103090   29.172800   44.312187
  H    -26.678549   28.045610   43.064243
  H    -25.571828   25.587344   42.815228

 Multiplicity           Mult            ....    1
 Number of Electrons    NEL             ....  102
 Basis Dimension        Dim             ....  149

ORBITAL ENERGIES
----------------

  NO   OCC          E(Eh)            E(eV)
   0   2.0000     -19.145740      -520.9821
   1   2.0000     -19.141999      -520.8803
   2   2.0000     -19.141132      -520.8567
   3   2.0000     -19.133743      -520.6556
   4   2.0000     -10.283607      -279.8312
   5   2.0000     -10.233882      -278.4781
   6   2.0000     -10.233726      -278.4738
   7   2.0000     -10.232302      -278.4351
   8   2.0000     -10.231936      -278.4251
   9   2.0000     -10.227735      -278.3108
  10   2.0000     -10.194765      -277.4137
  11   2.0000     -10.193442      -277.3777
  12   2.0000     -10.186698      -277.1941
  13   2.0000      -1.053279       -28.6612
  14   2.0000      -1.035407       -28.1748
  15   2.0000      -1.003260       -27.3001
  16   2.0000      -0.993742       -27.0411
  17   2.0000      -0.791911       -21.5490
  18   2.0000      -0.779706       -21.2169
  19   2.0000      -0.768582       -20.9142
  20   2.0000      -0.734921       -19.9982
  21   2.0000      -0.679660       -18.4945
  22   2.0000      -0.605912       -16.4877
  23   2.0000      -0.602402       -16.3922
  24   2.0000      -0.600341       -16.3361
  25   2.0000      -0.572518       -15.5790
  26   2.0000      -0.525130       -14.2895
  27   2.0000      -0.515337       -14.0230
  28   2.0000      -0.501193       -13.6381
  29   2.0000      -0.493302       -13.4234
  30   2.0000      -0.473253       -12.8779
  31   2.0000      -0.460150       -12.5213
  32   2.0000      -0.453230       -12.3330
  33   2.0000      -0.438607       -11.9351
  34   2.0000      -0.427394       -11.6300
  35   2.0000      -0.410505       -11.1704
  36   2.0000      -0.407835       -11.0978
  37   2.0000      -0.391807       -10.6616
  38   2.0000      -0.382336       -10.4039
  39   2.0000      -0.367393        -9.9973
  40   2.0000      -0.363556        -9.8929
  41   2.0000      -0.359072        -9.7708
  42   2.0000      -0.355867        -9.6836
  43   2.0000      -0.330544        -8.9946
  44   2.0000      -0.316317        -8.6074
  45   2.0000      -0.306925        -8.3519
  46   2.0000      -0.296252        -8.0614
  47   2.0000      -0.276238        -7.5168
  48   2.0000      -0.264195        -7.1891
  49   2.0000      -0.258874        -7.0443
  50   2.0000      -0.239083        -6.5058
  51   0.0000       0.064054         1.7430
  52   0.0000       0.070639         1.9222
  53   0.0000       0.095642         2.6025
  54   0.0000       0.095882         2.6091
  55   0.0000       0.105062         2.8589

MULLIKEN ATOMIC CHARGES
-----------------------
   0 C :    0.316040
   1 C :   -0.300384
   2 C :   -0.300373
   3 C :    0.000034
   4 O :   -0.494563
   5 H :    0.153735
   6 H :    0.155674
   7 H :    0.149329
   8 H :    0.145659
   9 H :    0.154051
  10 H :    0.152870
  11 H :    0.144339
  12 C :   -0.021659
  13 H :    0.143344
  14 H :    0.141825
  15 O :   -0.526842
  16 C :    0.058951
  17 C :    0.091575
  18 C :   -0.298099
  19 C :   -0.031380
  20 O :   -0.528792
  21 H :    0.154912
  22 O :   -0.603988
  23 H :    0.182382
  24 H :    0.161873
  25 H :    0.147159
  26 H :    0.144304
  27 H :    0.147197
  28 H :    0.360824
Sum of atomic charges:    0.0000000

LOEWDIN ATOMIC CHARGES
----------------------
   0 C :    0.185333
   1 C :   -0.233827
   2 C :   -0.217315
   3 C :   -0.026416
   4 O :   -0.303722
   5 H :    0.103075
   6 H :    0.121560
   7 H :    0.115695
   8 H :    0.116176
   9 H :    0.113180
  10 H :    0.108707
  11 H :    0.103940
  12 C :   -0.042526
  13 H :    0.104165
  14 H :    0.103106
  15 O :   -0.338387
  16 C :    0.007381
  17 C :    0.037984
  18 C :   -0.240480
  19 C :   -0.038601
  20 O :   -0.334527
  21 H :    0.111977
  22 O :   -0.415138
  23 H :    0.130881
  24 H :    0.126762
  25 H :    0.114829
  26 H :    0.103121
  27 H :    0.102660
  28 H :    0.280405

  Mayer bond orders larger than 0.100000
B(  0-C ,  1-C ) :   0.9325 B(  0-C ,  4-O ) :   0.9354 B(  0-C ,  5-H ) :   0.9254
B(  0-C , 15-O ) :   0.8358 B(  1-C ,  2-C ) :   0.9487 B(  1-C ,  6-H ) :   0.9329
B(  1-C ,  7-H ) :   0.9247 B(  2-C ,  3-C ) :   0.9541 B(  2-C ,  8-H ) :   0.9453
B(  2-C ,  9-H ) :   0.9459 B(  3-C ,  4-O ) :   0.8379 B(  3-C , 10-H ) :   0.9345
B(  3-C , 11-H ) :   0.9395 B( 12-C , 13-H ) :   0.9350 B( 12-C , 14-H ) :   0.9083
B( 12-C , 15-O ) :   0.8426 B( 12-C , 16-C ) :   0.8788 B( 16-C , 17-C ) :   0.9139
B( 16-C , 20-O ) :   0.8412 B( 16-C , 21-H ) :   0.9289 B( 17-C , 18-C ) :   0.9129
B( 17-C , 22-O ) :   0.8877 B( 17-C , 23-H ) :   0.9217 B( 18-C , 19-C ) :   0.9401
B( 18-C , 24-H ) :   0.9379 B( 18-C , 25-H ) :   0.9345 B( 19-C , 20-O ) :   0.8438
B( 19-C , 26-H ) :   0.9364 B( 19-C , 27-H ) :   0.9375 B( 22-O , 28-H ) :   0.7971

FINAL SINGLE POINT ENERGY      -652.856701494903

DIPOLE MOMENT
-------------
                                X             Y             Z
Electronic contribution:     -1.21217      -4.64080      -1.99260
Nuclear contribution   :      1.56175       6.13115       2.04335
                        -----------------------------------------
Total Dipole Moment    :      0.34958       1.49034       0.05075
                        -----------------------------------------
Magnitude (a.u.)       :      1.53164
Magnitude (Debye)      :      3.89311

Rotational constants in cm-1:     0.060876     0.011981     0.011295
Rotational constants in MHz :  1825.007324   359.167188   338.627390

                             ****ORCA TERMINATED NORMALLY****
TOTAL RUN TIME: 0 days 1 hours 42 minutes 52 seconds 251 msec
