                         Program Version 4.2.0 -  RELEASE  -
|  1> # Test redundant internal optimization
|  2> #
|  3> ! RKS B3LYP  Opt TightSCF SmallPrint
|  4>
|  5> %basis
|  6>         Basis "6-31G"
|  7> end
|  8>
|  9> %geom
| 10> Constraints
| 11> { D 4  0  15  12  210.0   C } # D for Dihedral angle
| 12> { D 0  15  12  16  45.0   C } # D for Dihedral angle
| 13> { D 0  4  3  2   C } # D for Dihedral angle
| 14> { D 4  3  2  1   C } # D for Dihedral angle
| 15> { D 3  2  1  0   C } # D for Dihedral angle
| 16> { D 2  1  0  4   C } # D for Dihedral angle
| 17> { D 1  0  4  3   C } # D for Dihedral angle
| 18> { D 16  20  19  18   C } # D for Dihedral angle
| 19> { D 20  19  18  17   C } # D for Dihedral angle
| 20> { D 19  18  17  16   C } # D for Dihedral angle
| 21> { D 18  17  16  20   C } # D for Dihedral angle
| 22> { D 17  16  20  19   C } # D for Dihedral angle
| 23> { D 15  12  16  20   C } # D for Dihedral angle
| 24> end
| 25> end
| 26>
| 27>
| 28> #%pal
| 29> #nprocs 8
| 30> #end
| 31>
| 32> * xyz 0 1
| 33> C  -21.048   26.222   46.251
| 34> C  -20.361   27.558   45.944
| 35> C  -20.329   28.222   47.341
| 36> C  -20.110   27.022   48.296
| 37> O  -20.473   25.807   47.535
| 38> H  -20.833   25.428   45.533
| 39> H  -19.344   27.382   45.576
| 40> H  -20.898   28.157   45.201
| 41> H  -19.543   28.978   47.434
| 42> H  -21.289   28.710   47.548
| 43> H  -20.733   27.082   49.195
| 44> H  -19.064   26.913   48.597
| 45> C  -23.389   26.110   45.076
| 46> H  -24.453   26.004   45.324
| 47> H  -23.284   26.944   44.370
| 48> O  -22.586   26.394   46.375
| 49> C  -22.924   24.816   44.353
| 50> C  -23.656   24.630   43.020
| 51> C  -22.885   25.605   42.099
| 52> C  -21.430   25.506   42.622
| 53> O  -21.510   24.919   43.977
| 54> H  -23.012   23.971   45.039
| 55> H  -23.545   23.597   42.669
| 56> O  -25.173   24.955   43.106
| 57> H  -22.966   25.343   41.039
| 58> H  -23.272   26.624   42.222
| 59> H  -20.940   26.484   42.684
| 60> H  -20.813   24.837   42.016
| 61> H  -25.310   25.985   43.454
| 62> *
| 63>
| 64>                          ****END OF INPUT****
 Total Charge           Charge          ....    0
 Multiplicity           Mult            ....    1
 Number of Electrons    NEL             ....  102
FINAL SINGLE POINT ENERGY      -652.820377479726
FINAL SINGLE POINT ENERGY      -652.842599879559
FINAL SINGLE POINT ENERGY      -652.851823180292
FINAL SINGLE POINT ENERGY      -652.853755920806
FINAL SINGLE POINT ENERGY      -652.854094807523
FINAL SINGLE POINT ENERGY      -652.854154331973
FINAL SINGLE POINT ENERGY      -652.854160894625
FINAL SINGLE POINT ENERGY      -652.854161892425
                    ***********************HURRAY********************

CARTESIAN COORDINATES (ANGSTROEM)
---------------------------------
  C    -20.876168   26.235131   46.256866
  C    -20.236112   27.607342   46.052993
  C    -20.422270   28.258816   47.445221
  C    -20.259810   27.062104   48.407157
  O    -20.456608   25.847817   47.575514
  H    -20.572229   25.457990   45.561380
  H    -19.172399   27.482514   45.816778
  H    -20.706024   28.178735   45.246839
  H    -19.696732   29.054296   47.640262
  H    -21.429551   28.678318   47.521643
  H    -20.995629   27.057147   49.215740
  H    -19.253622   26.992007   48.832281
  C    -23.156068   26.117324   45.120443
  H    -24.172265   26.023244   45.515210
  H    -23.125895   27.004389   44.460928
  O    -22.335539   26.368168   46.287312
  C    -22.845783   24.862623   44.296040
  C    -23.753371   24.695967   43.063127
  C    -23.020753   25.577404   42.004122
  C    -21.530811   25.366772   42.357047
  O    -21.491016   24.830807   43.745146
  H    -22.906422   23.993762   44.959710
  H    -23.751316   23.649104   42.753311
  O    -25.149210   25.011865   43.267410
  H    -23.260709   25.275553   40.981604
  H    -23.318294   26.626135   42.128330
  H    -20.946882   26.291205   42.316123
  H    -21.054036   24.619546   41.716270
  H    -25.277474   25.978913   43.351195

 Multiplicity           Mult            ....    1
 Number of Electrons    NEL             ....  102
 Basis Dimension        Dim             ....  149

ORBITAL ENERGIES
----------------

  NO   OCC          E(Eh)            E(eV)
   0   2.0000     -19.156193      -521.2665
   1   2.0000     -19.151884      -521.1493
   2   2.0000     -19.130050      -520.5551
   3   2.0000     -19.127523      -520.4864
   4   2.0000     -10.260835      -279.2115
   5   2.0000     -10.252730      -278.9910
   6   2.0000     -10.240943      -278.6702
   7   2.0000     -10.237801      -278.5847
   8   2.0000     -10.234025      -278.4820
   9   2.0000     -10.214740      -277.9572
  10   2.0000     -10.202873      -277.6343
  11   2.0000     -10.177125      -276.9336
  12   2.0000     -10.176412      -276.9143
  13   2.0000      -1.045143       -28.4398
  14   2.0000      -1.036884       -28.2151
  15   2.0000      -1.025026       -27.8924
  16   2.0000      -0.981833       -26.7170
  17   2.0000      -0.791078       -21.5263
  18   2.0000      -0.777776       -21.1644
  19   2.0000      -0.768529       -20.9127
  20   2.0000      -0.727303       -19.7909
  21   2.0000      -0.681650       -18.5486
  22   2.0000      -0.620572       -16.8866
  23   2.0000      -0.599957       -16.3256
  24   2.0000      -0.588262       -16.0074
  25   2.0000      -0.564043       -15.3484
  26   2.0000      -0.537024       -14.6132
  27   2.0000      -0.511617       -13.9218
  28   2.0000      -0.495712       -13.4890
  29   2.0000      -0.479221       -13.0403
  30   2.0000      -0.472321       -12.8525
  31   2.0000      -0.455833       -12.4038
  32   2.0000      -0.440912       -11.9978
  33   2.0000      -0.439371       -11.9559
  34   2.0000      -0.430900       -11.7254
  35   2.0000      -0.423437       -11.5223
  36   2.0000      -0.405148       -11.0246
  37   2.0000      -0.395123       -10.7518
  38   2.0000      -0.388083       -10.5603
  39   2.0000      -0.368536       -10.0284
  40   2.0000      -0.358778        -9.7629
  41   2.0000      -0.347933        -9.4677
  42   2.0000      -0.344109        -9.3637
  43   2.0000      -0.334301        -9.0968
  44   2.0000      -0.326082        -8.8731
  45   2.0000      -0.301271        -8.1980
  46   2.0000      -0.300645        -8.1810
  47   2.0000      -0.279486        -7.6052
  48   2.0000      -0.258908        -7.0452
  49   2.0000      -0.250671        -6.8211
  50   2.0000      -0.230881        -6.2826
  51   0.0000       0.044678         1.2157
  52   0.0000       0.065089         1.7712
  53   0.0000       0.084685         2.3044
  54   0.0000       0.095422         2.5966
  55   0.0000       0.101744         2.7686

MULLIKEN ATOMIC CHARGES
-----------------------
   0 C :    0.264264
   1 C :   -0.259798
   2 C :   -0.297276
   3 C :    0.000031
   4 O :   -0.502007
   5 H :    0.199333
   6 H :    0.141684
   7 H :    0.131683
   8 H :    0.135579
   9 H :    0.157647
  10 H :    0.149566
  11 H :    0.137005
  12 C :   -0.001014
  13 H :    0.161016
  14 H :    0.101865
  15 O :   -0.527918
  16 C :    0.066454
  17 C :    0.088048
  18 C :   -0.315192
  19 C :   -0.018015
  20 O :   -0.519953
  21 H :    0.173510
  22 H :    0.170874
  23 O :   -0.596248
  24 H :    0.159396
  25 H :    0.135956
  26 H :    0.147442
  27 H :    0.157721
  28 H :    0.358345
Sum of atomic charges:   -0.0000000

LOEWDIN ATOMIC CHARGES
----------------------
   0 C :    0.169807
   1 C :   -0.225676
   2 C :   -0.217743
   3 C :   -0.027073
   4 O :   -0.307518
   5 H :    0.124152
   6 H :    0.111810
   7 H :    0.109407
   8 H :    0.110870
   9 H :    0.116880
  10 H :    0.106610
  11 H :    0.099708
  12 C :   -0.046822
  13 H :    0.120783
  14 H :    0.075788
  15 O :   -0.335708
  16 C :    0.004659
  17 C :    0.039365
  18 C :   -0.239429
  19 C :   -0.031483
  20 O :   -0.322041
  21 H :    0.121828
  22 H :    0.121364
  23 O :   -0.402944
  24 H :    0.124100
  25 H :    0.105435
  26 H :    0.104155
  27 H :    0.109906
  28 H :    0.279809

  Mayer bond orders larger than 0.100000
B(  0-C ,  1-C ) :   0.9360 B(  0-C ,  4-O ) :   0.9220 B(  0-C ,  5-H ) :   0.8904
B(  0-C , 15-O ) :   0.8102 B(  1-C ,  2-C ) :   0.9538 B(  1-C ,  6-H ) :   0.9366
B(  1-C ,  7-H ) :   0.9406 B(  2-C ,  3-C ) :   0.9557 B(  2-C ,  8-H ) :   0.9459
B(  2-C ,  9-H ) :   0.9444 B(  3-C ,  4-O ) :   0.8424 B(  3-C , 10-H ) :   0.9349
B(  3-C , 11-H ) :   0.9402 B( 12-C , 13-H ) :   0.9180 B( 12-C , 14-H ) :   0.9170
B( 12-C , 15-O ) :   0.8752 B( 12-C , 16-C ) :   0.8953 B( 16-C , 17-C ) :   0.8701
B( 16-C , 20-O ) :   0.8392 B( 16-C , 21-H ) :   0.9258 B( 17-C , 18-C ) :   0.9202
B( 17-C , 22-H ) :   0.9328 B( 17-C , 23-O ) :   0.9062 B( 18-C , 19-C ) :   0.9408
B( 18-C , 24-H ) :   0.9418 B( 18-C , 25-H ) :   0.9399 B( 19-C , 20-O ) :   0.8360
B( 19-C , 26-H ) :   0.9314 B( 19-C , 27-H ) :   0.9369 B( 23-O , 28-H ) :   0.7965

FINAL SINGLE POINT ENERGY      -652.854161916856

DIPOLE MOMENT
-------------
                                X             Y             Z
Electronic contribution:     -1.94075      -4.98990       1.49839
Nuclear contribution   :      2.01165       6.19893      -2.81112
                        -----------------------------------------
Total Dipole Moment    :      0.07090       1.20903      -1.31274
                        -----------------------------------------
Magnitude (a.u.)       :      1.78607
Magnitude (Debye)      :      4.53984

Rotational constants in cm-1:     0.059097     0.013165     0.012275
Rotational constants in MHz :  1771.673915   394.691483   367.981568

                             ****ORCA TERMINATED NORMALLY****
TOTAL RUN TIME: 0 days 2 hours 21 minutes 4 seconds 666 msec
