                         Program Version 4.2.0 -  RELEASE  -
|  1> # Test redundant internal optimization
|  2> #
|  3> ! RKS B3LYP  Opt TightSCF SmallPrint
|  4>
|  5> %basis
|  6>         Basis "6-31G"
|  7> end
|  8>
|  9> %geom
| 10> Constraints
| 11> { D 4  0  15  12  195.0   C } # D for Dihedral angle
| 12> { D 0  15  12  16  165.0   C } # D for Dihedral angle
| 13> { D 0  4  3  2   C } # D for Dihedral angle
| 14> { D 4  3  2  1   C } # D for Dihedral angle
| 15> { D 3  2  1  0   C } # D for Dihedral angle
| 16> { D 2  1  0  4   C } # D for Dihedral angle
| 17> { D 1  0  4  3   C } # D for Dihedral angle
| 18> { D 16  20  19  18   C } # D for Dihedral angle
| 19> { D 20  19  18  17   C } # D for Dihedral angle
| 20> { D 19  18  17  16   C } # D for Dihedral angle
| 21> { D 18  17  16  20   C } # D for Dihedral angle
| 22> { D 17  16  20  19   C } # D for Dihedral angle
| 23> { D 15  12  16  20   C } # D for Dihedral angle
| 24> end
| 25> end
| 26>
| 27>
| 28> #%pal
| 29> #nprocs 8
| 30> #end
| 31>
| 32> * xyz 0 1
| 33> C  -21.048   26.222   46.251
| 34> C  -20.361   27.558   45.944
| 35> C  -20.329   28.222   47.341
| 36> C  -20.110   27.022   48.296
| 37> O  -20.473   25.807   47.535
| 38> H  -20.833   25.428   45.533
| 39> H  -19.344   27.382   45.576
| 40> H  -20.898   28.157   45.201
| 41> H  -19.543   28.978   47.434
| 42> H  -21.289   28.710   47.548
| 43> H  -20.733   27.082   49.195
| 44> H  -19.064   26.913   48.597
| 45> C  -23.353   26.472   45.026
| 46> H  -23.182   27.455   44.569
| 47> H  -22.989   25.703   44.332
| 48> O  -22.586   26.394   46.375
| 49> C  -24.884   26.270   45.194
| 50> C  -25.508   27.404   46.015
| 51> C  -25.616   28.532   44.961
| 52> C  -25.935   27.763   43.654
| 53> O  -25.557   26.354   43.893
| 54> H  -25.072   25.270   45.587
| 55> H  -26.503   27.109   46.368
| 56> O  -24.652   27.809   47.246
| 57> H  -26.384   29.272   45.208
| 58> H  -24.659   29.059   44.876
| 59> H  -25.374   28.145   42.796
| 60> H  -27.002   27.775   43.413
| 61> H  -23.652   28.109   46.915
| 62> *
| 63>
| 64>                          ****END OF INPUT****
 Total Charge           Charge          ....    0
 Multiplicity           Mult            ....    1
 Number of Electrons    NEL             ....  102
FINAL SINGLE POINT ENERGY      -652.828758415465
FINAL SINGLE POINT ENERGY      -652.853531847958
FINAL SINGLE POINT ENERGY      -652.860009807456
FINAL SINGLE POINT ENERGY      -652.862636598547
FINAL SINGLE POINT ENERGY      -652.864321602575
FINAL SINGLE POINT ENERGY      -652.865444330927
FINAL SINGLE POINT ENERGY      -652.866080152969
FINAL SINGLE POINT ENERGY      -652.866283689805
FINAL SINGLE POINT ENERGY      -652.866316769459
FINAL SINGLE POINT ENERGY      -652.866323697278
                    ***********************HURRAY********************

CARTESIAN COORDINATES (ANGSTROEM)
---------------------------------
  C    -21.101622   26.225963   46.188564
  C    -20.353108   27.523540   45.895982
  C    -20.426032   28.250504   47.260083
  C    -20.331406   27.093372   48.274388
  O    -20.669396   25.862119   47.501766
  H    -20.892677   25.388821   45.515460
  H    -19.316188   27.287430   45.630485
  H    -20.792454   28.102867   45.078934
  H    -19.623805   28.983214   47.386858
  H    -21.383895   28.772294   47.352843
  H    -21.034073   27.182614   49.106037
  H    -19.320763   26.944970   48.664006
  C    -23.240942   26.488011   44.944618
  H    -23.028241   27.433743   44.428135
  H    -22.908181   25.661137   44.303633
  O    -22.548366   26.440790   46.232379
  C    -24.738370   26.337172   45.232833
  C    -25.353867   27.468866   46.072885
  C    -25.556617   28.582036   45.003375
  C    -25.920912   27.785566   43.733693
  O    -25.480980   26.378507   43.975736
  H    -24.914866   25.353356   45.675642
  H    -26.330597   27.134367   46.441722
  O    -24.578227   27.914109   47.203904
  H    -26.334448   29.291869   45.297387
  H    -24.619379   29.137395   44.891810
  H    -25.426195   28.156788   42.831074
  H    -26.999030   27.746000   43.553879
  H    -23.708364   27.448579   47.200887

 Multiplicity           Mult            ....    1
 Number of Electrons    NEL             ....  102
 Basis Dimension        Dim             ....  149

ORBITAL ENERGIES
----------------

  NO   OCC          E(Eh)            E(eV)
   0   2.0000     -19.164597      -521.4952
   1   2.0000     -19.152587      -521.1684
   2   2.0000     -19.141426      -520.8647
   3   2.0000     -19.112628      -520.0810
   4   2.0000     -10.294224      -280.1201
   5   2.0000     -10.242172      -278.7037
   6   2.0000     -10.235550      -278.5235
   7   2.0000     -10.234015      -278.4817
   8   2.0000     -10.230552      -278.3875
   9   2.0000     -10.227587      -278.3068
  10   2.0000     -10.197651      -277.4922
  11   2.0000     -10.195197      -277.4254
  12   2.0000     -10.180299      -277.0200
  13   2.0000      -1.068781       -29.0830
  14   2.0000      -1.027161       -27.9505
  15   2.0000      -1.010289       -27.4914
  16   2.0000      -0.991976       -26.9930
  17   2.0000      -0.797158       -21.6918
  18   2.0000      -0.775367       -21.0988
  19   2.0000      -0.768980       -20.9250
  20   2.0000      -0.738196       -20.0873
  21   2.0000      -0.681482       -18.5441
  22   2.0000      -0.610508       -16.6128
  23   2.0000      -0.602613       -16.3979
  24   2.0000      -0.595244       -16.1974
  25   2.0000      -0.581264       -15.8170
  26   2.0000      -0.531161       -14.4536
  27   2.0000      -0.521932       -14.2025
  28   2.0000      -0.503491       -13.7007
  29   2.0000      -0.490443       -13.3456
  30   2.0000      -0.476482       -12.9657
  31   2.0000      -0.459896       -12.5144
  32   2.0000      -0.450601       -12.2615
  33   2.0000      -0.437358       -11.9011
  34   2.0000      -0.428880       -11.6704
  35   2.0000      -0.417223       -11.3532
  36   2.0000      -0.410627       -11.1737
  37   2.0000      -0.388472       -10.5709
  38   2.0000      -0.384079       -10.4513
  39   2.0000      -0.369579       -10.0568
  40   2.0000      -0.367523       -10.0008
  41   2.0000      -0.365523        -9.9464
  42   2.0000      -0.350472        -9.5368
  43   2.0000      -0.342539        -9.3210
  44   2.0000      -0.324001        -8.8165
  45   2.0000      -0.320131        -8.7112
  46   2.0000      -0.288481        -7.8500
  47   2.0000      -0.274737        -7.4760
  48   2.0000      -0.268758        -7.3133
  49   2.0000      -0.249405        -6.7867
  50   2.0000      -0.243676        -6.6308
  51   0.0000       0.054318         1.4781
  52   0.0000       0.072285         1.9670
  53   0.0000       0.089669         2.4400
  54   0.0000       0.096004         2.6124
  55   0.0000       0.104295         2.8380

MULLIKEN ATOMIC CHARGES
-----------------------
   0 C :    0.314902
   1 C :   -0.273771
   2 C :   -0.305486
   3 C :   -0.011206
   4 O :   -0.500361
   5 H :    0.148486
   6 H :    0.152350
   7 H :    0.146775
   8 H :    0.148971
   9 H :    0.166276
  10 H :    0.162847
  11 H :    0.149044
  12 C :   -0.016254
  13 H :    0.136986
  14 H :    0.154980
  15 O :   -0.554300
  16 C :    0.051981
  17 C :    0.123571
  18 C :   -0.301653
  19 C :   -0.019561
  20 O :   -0.522544
  21 H :    0.164283
  22 H :    0.145401
  23 O :   -0.649382
  24 H :    0.153272
  25 H :    0.143066
  26 H :    0.139021
  27 H :    0.150508
  28 H :    0.401802
Sum of atomic charges:   -0.0000000

LOEWDIN ATOMIC CHARGES
----------------------
   0 C :    0.183749
   1 C :   -0.228956
   2 C :   -0.218066
   3 C :   -0.026230
   4 O :   -0.300361
   5 H :    0.102908
   6 H :    0.118213
   7 H :    0.115854
   8 H :    0.118356
   9 H :    0.119970
  10 H :    0.113266
  11 H :    0.106672
  12 C :   -0.044831
  13 H :    0.093998
  14 H :    0.108945
  15 O :   -0.341954
  16 C :    0.019969
  17 C :    0.043099
  18 C :   -0.235540
  19 C :   -0.032438
  20 O :   -0.324207
  21 H :    0.118089
  22 H :    0.103971
  23 O :   -0.440504
  24 H :    0.121843
  25 H :    0.110001
  26 H :    0.100646
  27 H :    0.106766
  28 H :    0.286774

  Mayer bond orders larger than 0.100000
B(  0-C ,  1-C ) :   0.9326 B(  0-C ,  4-O ) :   0.9529 B(  0-C ,  5-H ) :   0.9209
B(  0-C , 15-O ) :   0.7860 B(  1-C ,  2-C ) :   0.9496 B(  1-C ,  6-H ) :   0.9334
B(  1-C ,  7-H ) :   0.9345 B(  2-C ,  3-C ) :   0.9535 B(  2-C ,  8-H ) :   0.9445
B(  2-C ,  9-H ) :   0.9406 B(  3-C ,  4-O ) :   0.8273 B(  3-C , 10-H ) :   0.9333
B(  3-C , 11-H ) :   0.9394 B( 12-C , 13-H ) :   0.9161 B( 12-C , 14-H ) :   0.9204
B( 12-C , 15-O ) :   0.7910 B( 12-C , 16-C ) :   0.9044 B( 16-C , 17-C ) :   0.9150
B( 16-C , 20-O ) :   0.8554 B( 16-C , 21-H ) :   0.9289 B( 17-C , 18-C ) :   0.9052
B( 17-C , 22-H ) :   0.9281 B( 17-C , 23-O ) :   0.9318 B( 18-C , 19-C ) :   0.9395
B( 18-C , 24-H ) :   0.9443 B( 18-C , 25-H ) :   0.9429 B( 19-C , 20-O ) :   0.8338
B( 19-C , 26-H ) :   0.9348 B( 19-C , 27-H ) :   0.9384 B( 23-O , 28-H ) :   0.7131

FINAL SINGLE POINT ENERGY      -652.866324584478

DIPOLE MOMENT
-------------
                                X             Y             Z
Electronic contribution:     -1.81135      -5.18819       1.34140
Nuclear contribution   :      2.81088       6.01050      -2.08162
                        -----------------------------------------
Total Dipole Moment    :      0.99953       0.82231      -0.74022
                        -----------------------------------------
Magnitude (a.u.)       :      1.49103
Magnitude (Debye)      :      3.78990

Rotational constants in cm-1:     0.056994     0.013782     0.013013
Rotational constants in MHz :  1708.638114   413.175449   390.130297

                             ****ORCA TERMINATED NORMALLY****
TOTAL RUN TIME: 0 days 1 hours 28 minutes 54 seconds 280 msec
