                         Program Version 4.2.0 -  RELEASE  -
|  1> # Test redundant internal optimization
|  2> #
|  3> ! RKS B3LYP  Opt TightSCF SmallPrint
|  4>
|  5> %basis
|  6>         Basis "6-31G"
|  7> end
|  8>
|  9> %geom
| 10> Constraints
| 11> { D 4  0  15  12  210.0   C } # D for Dihedral angle
| 12> { D 0  15  12  16  180.0   C } # D for Dihedral angle
| 13> { D 0  4  3  2   C } # D for Dihedral angle
| 14> { D 4  3  2  1   C } # D for Dihedral angle
| 15> { D 3  2  1  0   C } # D for Dihedral angle
| 16> { D 2  1  0  4   C } # D for Dihedral angle
| 17> { D 1  0  4  3   C } # D for Dihedral angle
| 18> { D 16  20  19  18   C } # D for Dihedral angle
| 19> { D 20  19  18  17   C } # D for Dihedral angle
| 20> { D 19  18  17  16   C } # D for Dihedral angle
| 21> { D 18  17  16  20   C } # D for Dihedral angle
| 22> { D 17  16  20  19   C } # D for Dihedral angle
| 23> { D 15  12  16  20   C } # D for Dihedral angle
| 24> end
| 25> end
| 26>
| 27>
| 28> #%pal
| 29> #nprocs 8
| 30> #end
| 31>
| 32> * xyz 0 1
| 33> C  -21.048   26.222   46.251
| 34> C  -20.361   27.558   45.944
| 35> C  -20.329   28.222   47.341
| 36> C  -20.110   27.022   48.296
| 37> O  -20.473   25.807   47.535
| 38> H  -20.833   25.428   45.533
| 39> H  -19.344   27.382   45.576
| 40> H  -20.898   28.157   45.201
| 41> H  -19.543   28.978   47.434
| 42> H  -21.289   28.710   47.548
| 43> H  -20.733   27.082   49.195
| 44> H  -19.064   26.913   48.597
| 45> C  -23.389   26.110   45.076
| 46> H  -23.052   26.792   44.286
| 47> H  -23.219   25.081   44.736
| 48> O  -22.586   26.394   46.375
| 49> C  -24.920   26.299   45.263
| 50> C  -25.450   25.440   46.417
| 51> C  -25.040   26.283   47.649
| 52> C  -25.199   27.740   47.147
| 53> O  -25.221   27.676   45.669
| 54> H  -25.421   26.131   44.308
| 55> H  -26.540   25.355   46.353
| 56> O  -24.848   24.009   46.440
| 57> H  -25.656   26.075   48.530
| 58> H  -23.996   26.078   47.915
| 59> H  -24.375   28.386   47.466
| 60> H  -26.145   28.190   47.464
| 61> H  -23.756   24.070   46.504
| 62> *
| 63>
| 64>                          ****END OF INPUT****
 Total Charge           Charge          ....    0
 Multiplicity           Mult            ....    1
 Number of Electrons    NEL             ....  102
FINAL SINGLE POINT ENERGY      -652.834217277951
FINAL SINGLE POINT ENERGY      -652.857830434868
FINAL SINGLE POINT ENERGY      -652.862320924104
FINAL SINGLE POINT ENERGY      -652.863805660426
FINAL SINGLE POINT ENERGY      -652.863965556705
FINAL SINGLE POINT ENERGY      -652.863987854160
                    ***********************HURRAY********************

CARTESIAN COORDINATES (ANGSTROEM)
---------------------------------
  C    -21.067237   26.221472   46.172783
  C    -20.372086   27.552069   45.894299
  C    -20.386901   28.217735   47.289812
  C    -20.202728   27.022211   48.247793
  O    -20.548659   25.813772   47.448652
  H    -20.852655   25.418376   45.459583
  H    -19.345634   27.362696   45.558707
  H    -20.883589   28.146876   45.132553
  H    -19.600589   28.969597   47.405132
  H    -21.354351   28.701121   47.454955
  H    -20.857853   27.061423   49.121311
  H    -19.167410   26.892159   48.575363
  C    -23.266588   26.131779   45.077102
  H    -22.944151   26.815365   44.279294
  H    -23.101689   25.097306   44.741308
  O    -22.508031   26.393877   46.293126
  C    -24.755951   26.343499   45.322965
  C    -25.369478   25.447259   46.412541
  C    -25.063194   26.260305   47.708440
  C    -25.196218   27.720910   47.229120
  O    -25.099949   27.693398   45.745931
  H    -25.255968   26.189003   44.359014
  H    -26.444737   25.347359   46.249329
  O    -24.859273   24.092324   46.423172
  H    -25.758606   26.018075   48.517340
  H    -24.041751   26.044699   48.028215
  H    -24.404109   28.366663   47.618366
  H    -26.170220   28.156927   47.473099
  H    -23.958393   24.091746   46.809695

 Multiplicity           Mult            ....    1
 Number of Electrons    NEL             ....  102
 Basis Dimension        Dim             ....  149

ORBITAL ENERGIES
----------------

  NO   OCC          E(Eh)            E(eV)
   0   2.0000     -19.150838      -521.1208
   1   2.0000     -19.147410      -521.0275
   2   2.0000     -19.135868      -520.7134
   3   2.0000     -19.132940      -520.6338
   4   2.0000     -10.286380      -279.9066
   5   2.0000     -10.233869      -278.4777
   6   2.0000     -10.233825      -278.4765
   7   2.0000     -10.230741      -278.3926
   8   2.0000     -10.230407      -278.3835
   9   2.0000     -10.220455      -278.1127
  10   2.0000     -10.190891      -277.3082
  11   2.0000     -10.190580      -277.2998
  12   2.0000     -10.175742      -276.8960
  13   2.0000      -1.060811       -28.8661
  14   2.0000      -1.025527       -27.9060
  15   2.0000      -1.007418       -27.4132
  16   2.0000      -0.999734       -27.2042
  17   2.0000      -0.791739       -21.5443
  18   2.0000      -0.772442       -21.0192
  19   2.0000      -0.764102       -20.7923
  20   2.0000      -0.734558       -19.9883
  21   2.0000      -0.677820       -18.4444
  22   2.0000      -0.605059       -16.4645
  23   2.0000      -0.600815       -16.3490
  24   2.0000      -0.595702       -16.2099
  25   2.0000      -0.572154       -15.5691
  26   2.0000      -0.529815       -14.4170
  27   2.0000      -0.505607       -13.7583
  28   2.0000      -0.499909       -13.6032
  29   2.0000      -0.487956       -13.2780
  30   2.0000      -0.474950       -12.9240
  31   2.0000      -0.457563       -12.4509
  32   2.0000      -0.448112       -12.1937
  33   2.0000      -0.431575       -11.7437
  34   2.0000      -0.422343       -11.4925
  35   2.0000      -0.411089       -11.1863
  36   2.0000      -0.402910       -10.9637
  37   2.0000      -0.399883       -10.8814
  38   2.0000      -0.376713       -10.2509
  39   2.0000      -0.372333       -10.1317
  40   2.0000      -0.361203        -9.8288
  41   2.0000      -0.356100        -9.6900
  42   2.0000      -0.350930        -9.5493
  43   2.0000      -0.324122        -8.8198
  44   2.0000      -0.318987        -8.6801
  45   2.0000      -0.312194        -8.4952
  46   2.0000      -0.305238        -8.3060
  47   2.0000      -0.269985        -7.3467
  48   2.0000      -0.261768        -7.1231
  49   2.0000      -0.256532        -6.9806
  50   2.0000      -0.238766        -6.4971
  51   0.0000       0.064972         1.7680
  52   0.0000       0.080472         2.1897
  53   0.0000       0.091739         2.4964
  54   0.0000       0.096221         2.6183
  55   0.0000       0.103954         2.8287

MULLIKEN ATOMIC CHARGES
-----------------------
   0 C :    0.295257
   1 C :   -0.261874
   2 C :   -0.303397
   3 C :   -0.004120
   4 O :   -0.508075
   5 H :    0.141692
   6 H :    0.145918
   7 H :    0.153349
   8 H :    0.145098
   9 H :    0.165495
  10 H :    0.151076
  11 H :    0.145090
  12 C :   -0.020774
  13 H :    0.141589
  14 H :    0.138331
  15 O :   -0.527291
  16 C :    0.090412
  17 C :    0.086082
  18 C :   -0.311336
  19 C :   -0.004879
  20 O :   -0.523149
  21 H :    0.148162
  22 H :    0.161104
  23 O :   -0.609759
  24 H :    0.142294
  25 H :    0.172473
  26 H :    0.144743
  27 H :    0.138860
  28 H :    0.367630
Sum of atomic charges:   -0.0000000

LOEWDIN ATOMIC CHARGES
----------------------
   0 C :    0.177090
   1 C :   -0.225559
   2 C :   -0.216732
   3 C :   -0.025928
   4 O :   -0.310801
   5 H :    0.098115
   6 H :    0.114567
   7 H :    0.120356
   8 H :    0.116116
   9 H :    0.119647
  10 H :    0.107509
  11 H :    0.104173
  12 C :   -0.048957
  13 H :    0.099837
  14 H :    0.100009
  15 O :   -0.339601
  16 C :    0.020383
  17 C :    0.037848
  18 C :   -0.242775
  19 C :   -0.024443
  20 O :   -0.324280
  21 H :    0.114173
  22 H :    0.115445
  23 O :   -0.412925
  24 H :    0.114077
  25 H :    0.125510
  26 H :    0.102838
  27 H :    0.099758
  28 H :    0.284552

  Mayer bond orders larger than 0.100000
B(  0-C ,  1-C ) :   0.9352 B(  0-C ,  4-O ) :   0.9345 B(  0-C ,  5-H ) :   0.9185
B(  0-C , 15-O ) :   0.8254 B(  1-C ,  2-C ) :   0.9533 B(  1-C ,  6-H ) :   0.9341
B(  1-C ,  7-H ) :   0.9350 B(  2-C ,  3-C ) :   0.9555 B(  2-C ,  8-H ) :   0.9446
B(  2-C ,  9-H ) :   0.9422 B(  3-C ,  4-O ) :   0.8335 B(  3-C , 10-H ) :   0.9349
B(  3-C , 11-H ) :   0.9395 B( 12-C , 13-H ) :   0.9185 B( 12-C , 14-H ) :   0.9004
B( 12-C , 15-O ) :   0.8294 B( 12-C , 16-C ) :   0.9174 B( 16-C , 17-C ) :   0.8854
B( 16-C , 20-O ) :   0.8825 B( 16-C , 21-H ) :   0.9288 B( 17-C , 18-C ) :   0.9342
B( 17-C , 22-H ) :   0.9362 B( 17-C , 23-O ) :   0.9025 B( 18-C , 19-C ) :   0.9445
B( 18-C , 24-H ) :   0.9415 B( 18-C , 25-H ) :   0.9240 B( 19-C , 20-O ) :   0.8363
B( 19-C , 26-H ) :   0.9319 B( 19-C , 27-H ) :   0.9383 B( 23-O , 28-H ) :   0.7903

FINAL SINGLE POINT ENERGY      -652.863988408953

DIPOLE MOMENT
-------------
                                X             Y             Z
Electronic contribution:     -2.45575      -3.50392      -1.57873
Nuclear contribution   :      3.32567       4.22862       1.67733
                        -----------------------------------------
Total Dipole Moment    :      0.86992       0.72469       0.09860
                        -----------------------------------------
Magnitude (a.u.)       :      1.13651
Magnitude (Debye)      :      2.88878

Rotational constants in cm-1:     0.044935     0.016158     0.015347
Rotational constants in MHz :  1347.107210   484.406404   460.099398

                             ****ORCA TERMINATED NORMALLY****
TOTAL RUN TIME: 0 days 0 hours 15 minutes 47 seconds 983 msec
