                         Program Version 4.2.0 -  RELEASE  -
|  1> # Test redundant internal optimization
|  2> #
|  3> ! RKS B3LYP  Opt TightSCF SmallPrint
|  4>
|  5> %basis
|  6>         Basis "6-31G"
|  7> end
|  8>
|  9> %geom
| 10> Constraints
| 11> { D 4  0  15  12  75.0   C } # D for Dihedral angle
| 12> { D 0  15  12  16  150.0   C } # D for Dihedral angle
| 13> { D 0  4  3  2   C } # D for Dihedral angle
| 14> { D 4  3  2  1   C } # D for Dihedral angle
| 15> { D 3  2  1  0   C } # D for Dihedral angle
| 16> { D 2  1  0  4   C } # D for Dihedral angle
| 17> { D 1  0  4  3   C } # D for Dihedral angle
| 18> { D 16  20  19  18   C } # D for Dihedral angle
| 19> { D 20  19  18  17   C } # D for Dihedral angle
| 20> { D 19  18  17  16   C } # D for Dihedral angle
| 21> { D 18  17  16  20   C } # D for Dihedral angle
| 22> { D 17  16  20  19   C } # D for Dihedral angle
| 23> { D 15  12  16  20   C } # D for Dihedral angle
| 24> end
| 25> end
| 26>
| 27>
| 28> #%pal
| 29> #nprocs 8
| 30> #end
| 31>
| 32> * xyz 0 1
| 33> C  -21.048   26.222   46.251
| 34> C  -20.361   27.558   45.944
| 35> C  -20.329   28.222   47.341
| 36> C  -20.110   27.022   48.296
| 37> O  -20.473   25.807   47.535
| 38> H  -20.833   25.428   45.533
| 39> H  -19.344   27.382   45.576
| 40> H  -20.898   28.157   45.201
| 41> H  -19.543   28.978   47.434
| 42> H  -21.289   28.710   47.548
| 43> H  -20.733   27.082   49.195
| 44> H  -19.064   26.913   48.597
| 45> C  -23.049   27.675   47.122
| 46> H  -23.134   27.458   48.194
| 47> H  -22.316   28.481   46.992
| 48> O  -22.586   26.394   46.375
| 49> C  -24.423   28.199   46.619
| 50> C  -25.544   27.198   46.918
| 51> C  -25.815   27.468   48.417
| 52> C  -25.589   28.996   48.545
| 53> O  -24.811   29.406   47.357
| 54> H  -24.335   28.481   45.568
| 55> H  -26.429   27.434   46.316
| 56> O  -25.139   25.725   46.635
| 57> H  -26.821   27.168   48.727
| 58> H  -25.096   26.917   49.035
| 59> H  -25.031   29.262   49.449
| 60> H  -26.525   29.559   48.529
| 61> H  -24.254   25.467   47.227
| 62> *
| 63>
| 64>                          ****END OF INPUT****
 Total Charge           Charge          ....    0
 Multiplicity           Mult            ....    1
 Number of Electrons    NEL             ....  102
FINAL SINGLE POINT ENERGY      -652.795206309263
FINAL SINGLE POINT ENERGY      -652.831998055930
FINAL SINGLE POINT ENERGY      -652.851537076892
FINAL SINGLE POINT ENERGY      -652.856948440750
FINAL SINGLE POINT ENERGY      -652.858823967094
FINAL SINGLE POINT ENERGY      -652.859987407535
FINAL SINGLE POINT ENERGY      -652.860518115812
FINAL SINGLE POINT ENERGY      -652.860652621145
FINAL SINGLE POINT ENERGY      -652.860672016331
FINAL SINGLE POINT ENERGY      -652.860673026148
FINAL SINGLE POINT ENERGY      -652.860673132405
                    ***********************HURRAY********************

CARTESIAN COORDINATES (ANGSTROEM)
---------------------------------
  C    -21.212931   26.365716   46.463137
  C    -20.309988   27.485591   45.926748
  C    -19.858268   28.198306   47.237545
  C    -19.743769   27.017194   48.234221
  O    -20.519890   25.901177   47.638225
  H    -21.273447   25.505361   45.795611
  H    -19.454142   27.026442   45.422383
  H    -20.819542   28.147592   45.221239
  H    -18.900745   28.714085   47.114245
  H    -20.587606   28.939800   47.568409
  H    -20.150537   27.244343   49.223788
  H    -18.715386   26.661843   48.343395
  C    -23.127741   27.851311   47.353771
  H    -23.209915   27.642436   48.426420
  H    -22.477576   28.716390   47.209542
  O    -22.615852   26.663542   46.664613
  C    -24.489452   28.182811   46.729003
  C    -25.575055   27.109656   46.917885
  C    -26.034809   27.379416   48.380760
  C    -25.923755   28.912083   48.505680
  O    -25.033024   29.365389   47.393647
  H    -24.344437   28.442276   45.676903
  H    -26.401926   27.328024   46.232700
  O    -25.173437   25.748762   46.678094
  H    -27.047654   27.010334   48.561519
  H    -25.359810   26.856356   49.066880
  H    -25.490945   29.241540   49.455512
  H    -26.881931   29.419053   48.360700
  H    -24.188432   25.692172   46.673423

 Multiplicity           Mult            ....    1
 Number of Electrons    NEL             ....  102
 Basis Dimension        Dim             ....  149

ORBITAL ENERGIES
----------------

  NO   OCC          E(Eh)            E(eV)
   0   2.0000     -19.165477      -521.5191
   1   2.0000     -19.151897      -521.1496
   2   2.0000     -19.141127      -520.8566
   3   2.0000     -19.110309      -520.0179
   4   2.0000     -10.293026      -280.0875
   5   2.0000     -10.241076      -278.6738
   6   2.0000     -10.238000      -278.5901
   7   2.0000     -10.234763      -278.5021
   8   2.0000     -10.228956      -278.3440
   9   2.0000     -10.226714      -278.2830
  10   2.0000     -10.202322      -277.6193
  11   2.0000     -10.202045      -277.6118
  12   2.0000     -10.177930      -276.9556
  13   2.0000      -1.064715       -28.9724
  14   2.0000      -1.026146       -27.9228
  15   2.0000      -1.010110       -27.4865
  16   2.0000      -0.990430       -26.9510
  17   2.0000      -0.798388       -21.7252
  18   2.0000      -0.780317       -21.2335
  19   2.0000      -0.768095       -20.9009
  20   2.0000      -0.738606       -20.0985
  21   2.0000      -0.684865       -18.6361
  22   2.0000      -0.614660       -16.7258
  23   2.0000      -0.602122       -16.3846
  24   2.0000      -0.596026       -16.2187
  25   2.0000      -0.577776       -15.7221
  26   2.0000      -0.534174       -14.5356
  27   2.0000      -0.512924       -13.9574
  28   2.0000      -0.511979       -13.9316
  29   2.0000      -0.487103       -13.2548
  30   2.0000      -0.476753       -12.9731
  31   2.0000      -0.464549       -12.6410
  32   2.0000      -0.442394       -12.0382
  33   2.0000      -0.434797       -11.8314
  34   2.0000      -0.427937       -11.6448
  35   2.0000      -0.424032       -11.5385
  36   2.0000      -0.411852       -11.2071
  37   2.0000      -0.393565       -10.7094
  38   2.0000      -0.387868       -10.5544
  39   2.0000      -0.370820       -10.0905
  40   2.0000      -0.367990       -10.0135
  41   2.0000      -0.360854        -9.8193
  42   2.0000      -0.347724        -9.4620
  43   2.0000      -0.340192        -9.2571
  44   2.0000      -0.324813        -8.8386
  45   2.0000      -0.317654        -8.6438
  46   2.0000      -0.292560        -7.9610
  47   2.0000      -0.274084        -7.4582
  48   2.0000      -0.269744        -7.3401
  49   2.0000      -0.249371        -6.7857
  50   2.0000      -0.239542        -6.5183
  51   0.0000       0.054540         1.4841
  52   0.0000       0.070179         1.9097
  53   0.0000       0.088211         2.4003
  54   0.0000       0.097551         2.6545
  55   0.0000       0.101336         2.7575

MULLIKEN ATOMIC CHARGES
-----------------------
   0 C :    0.316385
   1 C :   -0.284794
   2 C :   -0.318925
   3 C :   -0.011211
   4 O :   -0.500356
   5 H :    0.172162
   6 H :    0.163575
   7 H :    0.154040
   8 H :    0.150728
   9 H :    0.154977
  10 H :    0.149238
  11 H :    0.153059
  12 C :   -0.026541
  13 H :    0.152956
  14 H :    0.156904
  15 O :   -0.565726
  16 C :    0.059471
  17 C :    0.118446
  18 C :   -0.299874
  19 C :   -0.020423
  20 O :   -0.524053
  21 H :    0.156099
  22 H :    0.148550
  23 O :   -0.638349
  24 H :    0.149983
  25 H :    0.147380
  26 H :    0.138178
  27 H :    0.150520
  28 H :    0.397600
Sum of atomic charges:    0.0000000

LOEWDIN ATOMIC CHARGES
----------------------
   0 C :    0.178512
   1 C :   -0.227572
   2 C :   -0.223855
   3 C :   -0.031975
   4 O :   -0.316545
   5 H :    0.116508
   6 H :    0.126646
   7 H :    0.120893
   8 H :    0.118405
   9 H :    0.111120
  10 H :    0.105453
  11 H :    0.107587
  12 C :   -0.048449
  13 H :    0.105656
  14 H :    0.109322
  15 O :   -0.331703
  16 C :    0.018308
  17 C :    0.041629
  18 C :   -0.236984
  19 C :   -0.032239
  20 O :   -0.326802
  21 H :    0.113991
  22 H :    0.105764
  23 O :   -0.433214
  24 H :    0.121349
  25 H :    0.112163
  26 H :    0.100316
  27 H :    0.106509
  28 H :    0.289208

  Mayer bond orders larger than 0.100000
B(  0-C ,  1-C ) :   0.9267 B(  0-C ,  4-O ) :   0.9212 B(  0-C ,  5-H ) :   0.9347
B(  0-C , 15-O ) :   0.8488 B(  1-C ,  2-C ) :   0.9540 B(  1-C ,  6-H ) :   0.9337
B(  1-C ,  7-H ) :   0.9349 B(  2-C ,  3-C ) :   0.9464 B(  2-C ,  8-H ) :   0.9443
B(  2-C ,  9-H ) :   0.9359 B(  3-C ,  4-O ) :   0.8402 B(  3-C , 10-H ) :   0.9340
B(  3-C , 11-H ) :   0.9385 B( 12-C , 13-H ) :   0.9246 B( 12-C , 14-H ) :   0.9093
B( 12-C , 15-O ) :   0.7805 B( 12-C , 16-C ) :   0.9010 B( 16-C , 17-C ) :   0.9145
B( 16-C , 20-O ) :   0.8555 B( 16-C , 21-H ) :   0.9294 B( 17-C , 18-C ) :   0.9007
B( 17-C , 22-H ) :   0.9296 B( 17-C , 23-O ) :   0.9389 B( 18-C , 19-C ) :   0.9378
B( 18-C , 24-H ) :   0.9452 B( 18-C , 25-H ) :   0.9429 B( 19-C , 20-O ) :   0.8306
B( 19-C , 26-H ) :   0.9353 B( 19-C , 27-H ) :   0.9385 B( 23-O , 28-H ) :   0.7237

FINAL SINGLE POINT ENERGY      -652.860674367397

DIPOLE MOMENT
-------------
                                X             Y             Z
Electronic contribution:     -2.13647      -3.17088      -2.07708
Nuclear contribution   :      3.31470       4.19444       2.32961
                        -----------------------------------------
Total Dipole Moment    :      1.17823       1.02356       0.25253
                        -----------------------------------------
Magnitude (a.u.)       :      1.58104
Magnitude (Debye)      :      4.01868

Rotational constants in cm-1:     0.051456     0.014073     0.012843
Rotational constants in MHz :  1542.610995   421.893791   385.014935

                             ****ORCA TERMINATED NORMALLY****
TOTAL RUN TIME: 0 days 0 hours 40 minutes 59 seconds 551 msec
