                         Program Version 4.2.0 -  RELEASE  -
|  1> # Test redundant internal optimization
|  2> #
|  3> ! RKS B3LYP  Opt TightSCF SmallPrint
|  4>
|  5> %basis
|  6>         Basis "6-31G"
|  7> end
|  8>
|  9> %geom
| 10> Constraints
| 11> { D 4  0  15  12  105.0   C } # D for Dihedral angle
| 12> { D 0  15  12  16  195.0   C } # D for Dihedral angle
| 13> { D 0  4  3  2   C } # D for Dihedral angle
| 14> { D 4  3  2  1   C } # D for Dihedral angle
| 15> { D 3  2  1  0   C } # D for Dihedral angle
| 16> { D 2  1  0  4   C } # D for Dihedral angle
| 17> { D 1  0  4  3   C } # D for Dihedral angle
| 18> { D 16  20  19  18   C } # D for Dihedral angle
| 19> { D 20  19  18  17   C } # D for Dihedral angle
| 20> { D 19  18  17  16   C } # D for Dihedral angle
| 21> { D 18  17  16  20   C } # D for Dihedral angle
| 22> { D 17  16  20  19   C } # D for Dihedral angle
| 23> { D 15  12  16  20   C } # D for Dihedral angle
| 24> end
| 25> end
| 26>
| 27>
| 28> #%pal
| 29> #nprocs 8
| 30> #end
| 31>
| 32> * xyz 0 1
| 33> C  -21.048   26.222   46.251
| 34> C  -20.361   27.558   45.944
| 35> C  -20.329   28.222   47.341
| 36> C  -20.110   27.022   48.296
| 37> O  -20.473   25.807   47.535
| 38> H  -20.833   25.428   45.533
| 39> H  -19.344   27.382   45.576
| 40> H  -20.898   28.157   45.201
| 41> H  -19.543   28.978   47.434
| 42> H  -21.289   28.710   47.548
| 43> H  -20.733   27.082   49.195
| 44> H  -19.064   26.913   48.597
| 45> C  -23.085   27.864   46.420
| 46> H  -22.446   28.443   47.099
| 47> H  -23.027   28.320   45.423
| 48> O  -22.586   26.394   46.375
| 49> C  -24.554   27.986   46.911
| 50> C  -24.695   27.525   48.366
| 51> C  -24.173   28.761   49.137
| 52> C  -24.655   29.949   48.266
| 53> O  -24.972   29.391   46.934
| 54> H  -25.210   27.469   46.208
| 55> O  -26.189   27.261   48.699
| 56> H  -24.127   26.615   48.587
| 57> H  -24.554   28.814   50.162
| 58> H  -23.078   28.738   49.188
| 59> H  -23.892   30.726   48.158
| 60> H  -25.571   30.404   48.652
| 61> H  -26.778   28.161   48.486
| 62> *
| 63>
| 64>                          ****END OF INPUT****
 Total Charge           Charge          ....    0
 Multiplicity           Mult            ....    1
 Number of Electrons    NEL             ....  102
FINAL SINGLE POINT ENERGY      -652.809358612214
FINAL SINGLE POINT ENERGY      -652.838504281825
FINAL SINGLE POINT ENERGY      -652.853346642844
FINAL SINGLE POINT ENERGY      -652.855550802622
FINAL SINGLE POINT ENERGY      -652.855938988763
FINAL SINGLE POINT ENERGY      -652.855996761723
FINAL SINGLE POINT ENERGY      -652.856002629192
                    ***********************HURRAY********************

CARTESIAN COORDINATES (ANGSTROEM)
---------------------------------
  C    -21.234068   26.359588   46.376891
  C    -20.224808   27.408951   45.890981
  C    -19.877015   28.161319   47.208963
  C    -19.926705   27.026722   48.263320
  O    -20.690577   25.919537   47.641344
  H    -21.257579   25.461725   45.757191
  H    -19.344789   26.886272   45.503480
  H    -20.612970   28.062013   45.104179
  H    -18.890437   28.633316   47.165310
  H    -20.605832   28.946190   47.424789
  H    -20.419869   27.324906   49.193386
  H    -18.933676   26.633438   48.498422
  C    -23.112423   28.100301   46.459481
  H    -22.531826   28.749066   47.124460
  H    -23.083028   28.526576   45.449554
  O    -22.628579   26.729103   46.464345
  C    -24.561312   28.038249   46.944478
  C    -24.739616   27.525916   48.380891
  C    -24.395987   28.791434   49.207872
  C    -24.946382   29.946669   48.334465
  O    -25.125044   29.392671   46.968062
  H    -25.158211   27.447902   46.244833
  O    -26.110004   27.094867   48.608049
  H    -24.112503   26.664699   48.603475
  H    -24.861587   28.745434   50.195084
  H    -23.311865   28.874646   49.344911
  H    -24.269434   30.805574   48.283440
  H    -25.927256   30.296441   48.669906
  H    -26.723617   27.748473   48.210437

 Multiplicity           Mult            ....    1
 Number of Electrons    NEL             ....  102
 Basis Dimension        Dim             ....  149

ORBITAL ENERGIES
----------------

  NO   OCC          E(Eh)            E(eV)
   0   2.0000     -19.146773      -521.0102
   1   2.0000     -19.145313      -520.9704
   2   2.0000     -19.142666      -520.8984
   3   2.0000     -19.132556      -520.6233
   4   2.0000     -10.282961      -279.8136
   5   2.0000     -10.235658      -278.5264
   6   2.0000     -10.233008      -278.4543
   7   2.0000     -10.232767      -278.4478
   8   2.0000     -10.232313      -278.4354
   9   2.0000     -10.232187      -278.4320
  10   2.0000     -10.199106      -277.5318
  11   2.0000     -10.198875      -277.5255
  12   2.0000     -10.187881      -277.2263
  13   2.0000      -1.053958       -28.6796
  14   2.0000      -1.035451       -28.1761
  15   2.0000      -1.003087       -27.2954
  16   2.0000      -0.999233       -27.1905
  17   2.0000      -0.794426       -21.6174
  18   2.0000      -0.782370       -21.2894
  19   2.0000      -0.771367       -20.9900
  20   2.0000      -0.734439       -19.9851
  21   2.0000      -0.681470       -18.5438
  22   2.0000      -0.610013       -16.5993
  23   2.0000      -0.603751       -16.4289
  24   2.0000      -0.597181       -16.2501
  25   2.0000      -0.577230       -15.7072
  26   2.0000      -0.524629       -14.2759
  27   2.0000      -0.514217       -13.9926
  28   2.0000      -0.506940       -13.7945
  29   2.0000      -0.494325       -13.4513
  30   2.0000      -0.474658       -12.9161
  31   2.0000      -0.455748       -12.4015
  32   2.0000      -0.453267       -12.3340
  33   2.0000      -0.439344       -11.9552
  34   2.0000      -0.431387       -11.7386
  35   2.0000      -0.416925       -11.3451
  36   2.0000      -0.410966       -11.1830
  37   2.0000      -0.391930       -10.6650
  38   2.0000      -0.388104       -10.5608
  39   2.0000      -0.369024       -10.0416
  40   2.0000      -0.365506        -9.9459
  41   2.0000      -0.362358        -9.8603
  42   2.0000      -0.351896        -9.5756
  43   2.0000      -0.332164        -9.0386
  44   2.0000      -0.318263        -8.6604
  45   2.0000      -0.305527        -8.3138
  46   2.0000      -0.296705        -8.0738
  47   2.0000      -0.275271        -7.4905
  48   2.0000      -0.266099        -7.2409
  49   2.0000      -0.256341        -6.9754
  50   2.0000      -0.246979        -6.7206
  51   0.0000       0.051908         1.4125
  52   0.0000       0.065024         1.7694
  53   0.0000       0.088052         2.3960
  54   0.0000       0.096291         2.6202
  55   0.0000       0.101121         2.7516

MULLIKEN ATOMIC CHARGES
-----------------------
   0 C :    0.311784
   1 C :   -0.295038
   2 C :   -0.311700
   3 C :   -0.007638
   4 O :   -0.496464
   5 H :    0.166114
   6 H :    0.160978
   7 H :    0.150221
   8 H :    0.147521
   9 H :    0.147914
  10 H :    0.143439
  11 H :    0.149144
  12 C :   -0.005929
  13 H :    0.126989
  14 H :    0.147418
  15 O :   -0.531205
  16 C :    0.058593
  17 C :    0.088030
  18 C :   -0.301727
  19 C :   -0.033218
  20 O :   -0.528854
  21 H :    0.170926
  22 O :   -0.601351
  23 H :    0.186887
  24 H :    0.163414
  25 H :    0.141296
  26 H :    0.143853
  27 H :    0.147206
  28 H :    0.361397
Sum of atomic charges:    0.0000000

LOEWDIN ATOMIC CHARGES
----------------------
   0 C :    0.177992
   1 C :   -0.230043
   2 C :   -0.222115
   3 C :   -0.032563
   4 O :   -0.317031
   5 H :    0.111221
   6 H :    0.125461
   7 H :    0.118089
   8 H :    0.117071
   9 H :    0.107193
  10 H :    0.102289
  11 H :    0.105781
  12 C :   -0.038915
  13 H :    0.090255
  14 H :    0.103990
  15 O :   -0.326737
  16 C :    0.019512
  17 C :    0.038491
  18 C :   -0.242691
  19 C :   -0.040022
  20 O :   -0.331848
  21 H :    0.120743
  22 O :   -0.413004
  23 H :    0.132645
  24 H :    0.127564
  25 H :    0.110575
  26 H :    0.102149
  27 H :    0.103350
  28 H :    0.280598

  Mayer bond orders larger than 0.100000
B(  0-C ,  1-C ) :   0.9280 B(  0-C ,  4-O ) :   0.9082 B(  0-C ,  5-H ) :   0.9338
B(  0-C , 15-O ) :   0.8837 B(  1-C ,  2-C ) :   0.9516 B(  1-C ,  6-H ) :   0.9345
B(  1-C ,  7-H ) :   0.9333 B(  2-C ,  3-C ) :   0.9473 B(  2-C ,  8-H ) :   0.9447
B(  2-C ,  9-H ) :   0.9377 B(  3-C ,  4-O ) :   0.8487 B(  3-C , 10-H ) :   0.9341
B(  3-C , 11-H ) :   0.9387 B( 12-C , 13-H ) :   0.9032 B( 12-C , 14-H ) :   0.9191
B( 12-C , 15-O ) :   0.8251 B( 12-C , 16-C ) :   0.9019 B( 16-C , 17-C ) :   0.9119
B( 16-C , 20-O ) :   0.8433 B( 16-C , 21-H ) :   0.9244 B( 17-C , 18-C ) :   0.9110
B( 17-C , 22-O ) :   0.8905 B( 17-C , 23-H ) :   0.9197 B( 18-C , 19-C ) :   0.9410
B( 18-C , 24-H ) :   0.9375 B( 18-C , 25-H ) :   0.9353 B( 19-C , 20-O ) :   0.8436
B( 19-C , 26-H ) :   0.9355 B( 19-C , 27-H ) :   0.9384 B( 22-O , 28-H ) :   0.7963

FINAL SINGLE POINT ENERGY      -652.855993860929

DIPOLE MOMENT
-------------
                                X             Y             Z
Electronic contribution:     -5.00710      -4.38628      -1.55218
Nuclear contribution   :      6.22667       5.79151       1.48166
                        -----------------------------------------
Total Dipole Moment    :      1.21957       1.40523      -0.07052
                        -----------------------------------------
Magnitude (a.u.)       :      1.86199
Magnitude (Debye)      :      4.73280

Rotational constants in cm-1:     0.048853     0.014196     0.013931
Rotational constants in MHz :  1464.584768   425.576365   417.643750

                             ****ORCA TERMINATED NORMALLY****
TOTAL RUN TIME: 0 days 1 hours 21 minutes 59 seconds 882 msec
