                         Program Version 4.2.0 -  RELEASE  -
|  1> # Test redundant internal optimization
|  2> #
|  3> ! RKS B3LYP  Opt TightSCF SmallPrint
|  4>
|  5> %basis
|  6>         Basis "6-31G"
|  7> end
|  8>
|  9> %geom
| 10> Constraints
| 11> { D 4  0  15  12  105.0   C } # D for Dihedral angle
| 12> { D 0  15  12  16  225.0   C } # D for Dihedral angle
| 13> { D 0  4  3  2   C } # D for Dihedral angle
| 14> { D 4  3  2  1   C } # D for Dihedral angle
| 15> { D 3  2  1  0   C } # D for Dihedral angle
| 16> { D 2  1  0  4   C } # D for Dihedral angle
| 17> { D 1  0  4  3   C } # D for Dihedral angle
| 18> { D 16  20  19  18   C } # D for Dihedral angle
| 19> { D 20  19  18  17   C } # D for Dihedral angle
| 20> { D 19  18  17  16   C } # D for Dihedral angle
| 21> { D 18  17  16  20   C } # D for Dihedral angle
| 22> { D 17  16  20  19   C } # D for Dihedral angle
| 23> { D 15  12  16  20   C } # D for Dihedral angle
| 24> end
| 25> end
| 26>
| 27>
| 28> #%pal
| 29> #nprocs 8
| 30> #end
| 31>
| 32> * xyz 0 1
| 33> C  -21.048   26.222   46.251
| 34> C  -20.361   27.558   45.944
| 35> C  -20.329   28.222   47.341
| 36> C  -20.110   27.022   48.296
| 37> O  -20.473   25.807   47.535
| 38> H  -20.833   25.428   45.533
| 39> H  -19.344   27.382   45.576
| 40> H  -20.898   28.157   45.201
| 41> H  -19.543   28.978   47.434
| 42> H  -21.289   28.710   47.548
| 43> H  -20.733   27.082   49.195
| 44> H  -19.064   26.913   48.597
| 45> C  -23.085   27.864   46.420
| 46> H  -22.234   28.529   46.615
| 47> H  -23.529   28.149   45.458
| 48> O  -22.586   26.394   46.375
| 49> C  -24.153   28.103   47.523
| 50> C  -24.705   29.531   47.464
| 51> C  -25.713   29.429   46.294
| 52> C  -26.279   27.995   46.442
| 53> O  -25.325   27.252   47.294
| 54> H  -23.736   27.819   48.492
| 55> O  -25.437   29.875   48.790
| 56> H  -23.929   30.285   47.292
| 57> H  -26.495   30.194   46.340
| 58> H  -25.190   29.541   45.336
| 59> H  -26.375   27.481   45.479
| 60> H  -27.247   27.978   46.951
| 61> H  -26.219   29.132   48.982
| 62> *
| 63>
| 64>                          ****END OF INPUT****
 Total Charge           Charge          ....    0
 Multiplicity           Mult            ....    1
 Number of Electrons    NEL             ....  102
FINAL SINGLE POINT ENERGY      -652.802928070076
FINAL SINGLE POINT ENERGY      -652.831803319583
FINAL SINGLE POINT ENERGY      -652.845687125373
FINAL SINGLE POINT ENERGY      -652.848255621239
FINAL SINGLE POINT ENERGY      -652.848683126240
FINAL SINGLE POINT ENERGY      -652.848726228716
FINAL SINGLE POINT ENERGY      -652.848730030578
                    ***********************HURRAY********************

CARTESIAN COORDINATES (ANGSTROEM)
---------------------------------
  C    -21.189200   26.367983   46.375374
  C    -20.181165   27.451186   45.963185
  C    -19.917720   28.185739   47.312704
  C    -19.994267   27.025326   48.338267
  O    -20.697909   25.916569   47.656750
  H    -21.157676   25.481889   45.739391
  H    -19.268556   26.957653   45.615247
  H    -20.541410   28.109537   45.167471
  H    -18.940450   28.678562   47.327811
  H    -20.672189   28.950115   47.516120
  H    -20.540532   27.292712   49.247684
  H    -19.004635   26.650922   48.615326
  C    -23.125787   28.051634   46.382698
  H    -22.367029   28.806328   46.611770
  H    -23.513609   28.257073   45.375841
  O    -22.595698   26.700526   46.390357
  C    -24.245207   28.147558   47.420450
  C    -24.922420   29.523743   47.479075
  C    -25.945736   29.422944   46.315944
  C    -26.379700   27.936374   46.363807
  O    -25.342702   27.220033   47.143903
  H    -23.839951   27.859456   48.395398
  O    -25.582091   29.720165   48.759727
  H    -24.235555   30.365663   47.377640
  H    -26.775408   30.116645   46.471624
  H    -25.464237   29.668888   45.363022
  H    -26.454569   27.483753   45.370997
  H    -27.331776   27.794488   46.884892
  H    -26.034816   28.888535   49.015524

 Multiplicity           Mult            ....    1
 Number of Electrons    NEL             ....  102
 Basis Dimension        Dim             ....  149

ORBITAL ENERGIES
----------------

  NO   OCC          E(Eh)            E(eV)
   0   2.0000     -19.140044      -520.8271
   1   2.0000     -19.139460      -520.8112
   2   2.0000     -19.138767      -520.7923
   3   2.0000     -19.137476      -520.7572
   4   2.0000     -10.278821      -279.7009
   5   2.0000     -10.244502      -278.7671
   6   2.0000     -10.236387      -278.5463
   7   2.0000     -10.234017      -278.4817
   8   2.0000     -10.229287      -278.3530
   9   2.0000     -10.228004      -278.3181
  10   2.0000     -10.196816      -277.4695
  11   2.0000     -10.196351      -277.4568
  12   2.0000     -10.190509      -277.2978
  13   2.0000      -1.049049       -28.5461
  14   2.0000      -1.036245       -28.1976
  15   2.0000      -1.006791       -27.3962
  16   2.0000      -0.993222       -27.0269
  17   2.0000      -0.791006       -21.5244
  18   2.0000      -0.786937       -21.4136
  19   2.0000      -0.770920       -20.9778
  20   2.0000      -0.733949       -19.9718
  21   2.0000      -0.681054       -18.5324
  22   2.0000      -0.608586       -16.5605
  23   2.0000      -0.604928       -16.4609
  24   2.0000      -0.598862       -16.2959
  25   2.0000      -0.575722       -15.6662
  26   2.0000      -0.523122       -14.2349
  27   2.0000      -0.518073       -14.0975
  28   2.0000      -0.502281       -13.6678
  29   2.0000      -0.492349       -13.3975
  30   2.0000      -0.474533       -12.9127
  31   2.0000      -0.461167       -12.5490
  32   2.0000      -0.447343       -12.1728
  33   2.0000      -0.443773       -12.0757
  34   2.0000      -0.429240       -11.6802
  35   2.0000      -0.418730       -11.3942
  36   2.0000      -0.402135       -10.9427
  37   2.0000      -0.393956       -10.7201
  38   2.0000      -0.384694       -10.4681
  39   2.0000      -0.373474       -10.1627
  40   2.0000      -0.366222        -9.9654
  41   2.0000      -0.361322        -9.8321
  42   2.0000      -0.351030        -9.5520
  43   2.0000      -0.333404        -9.0724
  44   2.0000      -0.313826        -8.5397
  45   2.0000      -0.307546        -8.3687
  46   2.0000      -0.289356        -7.8738
  47   2.0000      -0.272865        -7.4250
  48   2.0000      -0.269026        -7.3206
  49   2.0000      -0.252341        -6.8666
  50   2.0000      -0.239186        -6.5086
  51   0.0000       0.061876         1.6837
  52   0.0000       0.075004         2.0410
  53   0.0000       0.081234         2.2105
  54   0.0000       0.096053         2.6137
  55   0.0000       0.097262         2.6466

MULLIKEN ATOMIC CHARGES
-----------------------
   0 C :    0.311141
   1 C :   -0.300443
   2 C :   -0.314521
   3 C :   -0.005933
   4 O :   -0.494787
   5 H :    0.164824
   6 H :    0.160342
   7 H :    0.146531
   8 H :    0.146918
   9 H :    0.151315
  10 H :    0.147085
  11 H :    0.146884
  12 C :   -0.002000
  13 H :    0.120253
  14 H :    0.135016
  15 O :   -0.512870
  16 C :    0.078887
  17 C :    0.073376
  18 C :   -0.292958
  19 C :   -0.027135
  20 O :   -0.505675
  21 H :    0.165546
  22 O :   -0.603509
  23 H :    0.146143
  24 H :    0.164294
  25 H :    0.138641
  26 H :    0.150301
  27 H :    0.144336
  28 H :    0.367997
Sum of atomic charges:   -0.0000000

LOEWDIN ATOMIC CHARGES
----------------------
   0 C :    0.179062
   1 C :   -0.232688
   2 C :   -0.223598
   3 C :   -0.032236
   4 O :   -0.315886
   5 H :    0.110677
   6 H :    0.125305
   7 H :    0.115409
   8 H :    0.116525
   9 H :    0.106853
  10 H :    0.104224
  11 H :    0.104622
  12 C :   -0.040806
  13 H :    0.095852
  14 H :    0.097918
  15 O :   -0.313959
  16 C :    0.016586
  17 C :    0.033262
  18 C :   -0.240704
  19 C :   -0.037507
  20 O :   -0.316480
  21 H :    0.119614
  22 O :   -0.415314
  23 H :    0.112109
  24 H :    0.127154
  25 H :    0.110428
  26 H :    0.106351
  27 H :    0.102067
  28 H :    0.285161

  Mayer bond orders larger than 0.100000
B(  0-C ,  1-C ) :   0.9257 B(  0-C ,  4-O ) :   0.9050 B(  0-C ,  5-H ) :   0.9340
B(  0-C , 15-O ) :   0.8964 B(  1-C ,  2-C ) :   0.9513 B(  1-C ,  6-H ) :   0.9344
B(  1-C ,  7-H ) :   0.9336 B(  2-C ,  3-C ) :   0.9454 B(  2-C ,  8-H ) :   0.9452
B(  2-C ,  9-H ) :   0.9365 B(  3-C ,  4-O ) :   0.8511 B(  3-C , 10-H ) :   0.9336
B(  3-C , 11-H ) :   0.9389 B( 12-C , 13-H ) :   0.8967 B( 12-C , 14-H ) :   0.9267
B( 12-C , 15-O ) :   0.8457 B( 12-C , 16-C ) :   0.8925 B( 16-C , 17-C ) :   0.8968
B( 16-C , 20-O ) :   0.8687 B( 16-C , 21-H ) :   0.9250 B( 17-C , 18-C ) :   0.9097
B( 17-C , 22-O ) :   0.8933 B( 17-C , 23-H ) :   0.9336 B( 18-C , 19-C ) :   0.9404
B( 18-C , 24-H ) :   0.9371 B( 18-C , 25-H ) :   0.9350 B( 19-C , 20-O ) :   0.8522
B( 19-C , 26-H ) :   0.9338 B( 19-C , 27-H ) :   0.9379 B( 22-O , 28-H ) :   0.7921

FINAL SINGLE POINT ENERGY      -652.848728926369

DIPOLE MOMENT
-------------
                                X             Y             Z
Electronic contribution:     -2.73879      -4.59302       2.20024
Nuclear contribution   :      3.34503       5.86770      -3.09449
                        -----------------------------------------
Total Dipole Moment    :      0.60624       1.27468      -0.89426
                        -----------------------------------------
Magnitude (a.u.)       :      1.67094
Magnitude (Debye)      :      4.24718

Rotational constants in cm-1:     0.054433     0.012932     0.012199
Rotational constants in MHz :  1631.868755   387.679241   365.702721

                             ****ORCA TERMINATED NORMALLY****
TOTAL RUN TIME: 0 days 1 hours 58 minutes 39 seconds 199 msec
