                         Program Version 4.2.0 -  RELEASE  -
|  1> # Test redundant internal optimization
|  2> #
|  3> ! RKS B3LYP  Opt TightSCF SmallPrint
|  4>
|  5> %basis
|  6>         Basis "6-31G"
|  7> end
|  8>
|  9> %geom
| 10> Constraints
| 11> { D 4  0  15  12  255.0   C } # D for Dihedral angle
| 12> { D 0  15  12  16  0.0   C } # D for Dihedral angle
| 13> { D 0  4  3  2   C } # D for Dihedral angle
| 14> { D 4  3  2  1   C } # D for Dihedral angle
| 15> { D 3  2  1  0   C } # D for Dihedral angle
| 16> { D 2  1  0  4   C } # D for Dihedral angle
| 17> { D 1  0  4  3   C } # D for Dihedral angle
| 18> { D 16  20  19  18   C } # D for Dihedral angle
| 19> { D 20  19  18  17   C } # D for Dihedral angle
| 20> { D 19  18  17  16   C } # D for Dihedral angle
| 21> { D 18  17  16  20   C } # D for Dihedral angle
| 22> { D 17  16  20  19   C } # D for Dihedral angle
| 23> { D 15  12  16  20   C } # D for Dihedral angle
| 24> end
| 25> end
| 26>
| 27>
| 28> #%pal
| 29> #nprocs 8
| 30> #end
| 31>
| 32> * xyz 0 1
| 33> C  -21.048   26.222   46.251
| 34> C  -20.361   27.558   45.944
| 35> C  -20.329   28.222   47.341
| 36> C  -20.110   27.022   48.296
| 37> O  -20.473   25.807   47.535
| 38> H  -20.833   25.428   45.533
| 39> H  -19.344   27.382   45.576
| 40> H  -20.898   28.157   45.201
| 41> H  -19.543   28.978   47.434
| 42> H  -21.289   28.710   47.548
| 43> H  -20.733   27.082   49.195
| 44> H  -19.064   26.913   48.597
| 45> C  -23.431   25.260   45.734
| 46> H  -24.057   24.794   46.505
| 47> H  -24.091   25.665   44.956
| 48> O  -22.586   26.394   46.375
| 49> C  -22.556   24.154   45.081
| 50> C  -23.420   23.114   44.359
| 51> C  -23.753   23.846   43.038
| 52> C  -22.463   24.653   42.748
| 53> O  -21.716   24.723   44.022
| 54> H  -21.883   23.739   45.835
| 55> O  -22.589   21.831   44.081
| 56> H  -24.314   22.830   44.925
| 57> H  -24.007   23.158   42.224
| 58> H  -24.605   24.520   43.185
| 59> H  -22.674   25.670   42.399
| 60> H  -21.814   24.156   42.020
| 61> H  -21.688   22.092   43.515
| 62> *
| 63>
| 64>                          ****END OF INPUT****
 Total Charge           Charge          ....    0
 Multiplicity           Mult            ....    1
 Number of Electrons    NEL             ....  102
FINAL SINGLE POINT ENERGY      -652.827844550681
FINAL SINGLE POINT ENERGY      -652.850487409208
FINAL SINGLE POINT ENERGY      -652.856752460598
FINAL SINGLE POINT ENERGY      -652.858965484744
FINAL SINGLE POINT ENERGY      -652.859259287222
FINAL SINGLE POINT ENERGY      -652.859309409098
                    ***********************HURRAY********************

CARTESIAN COORDINATES (ANGSTROEM)
---------------------------------
  C    -20.858229   26.235843   46.212214
  C    -20.357805   27.668642   46.019853
  C    -20.486236   28.247169   47.450732
  C    -20.142164   27.032546   48.343402
  O    -20.296977   25.836353   47.483811
  H    -20.524246   25.523019   45.463146
  H    -19.309403   27.646298   45.699637
  H    -20.945356   28.211836   45.277409
  H    -19.818134   29.095634   47.626176
  H    -21.516316   28.572333   47.622921
  H    -20.805519   26.936249   49.207307
  H    -19.103004   27.041241   48.687441
  C    -23.171819   25.288754   45.700661
  H    -23.784028   24.874302   46.512699
  H    -23.838517   25.820864   45.010571
  O    -22.305774   26.299786   46.289236
  C    -22.497606   24.122462   44.977377
  C    -23.496919   23.140127   44.344649
  C    -23.834607   23.851576   43.006514
  C    -22.490188   24.519674   42.616621
  O    -21.668150   24.566798   43.850630
  H    -21.827936   23.595448   45.664472
  O    -22.884193   21.841106   44.126590
  H    -24.373496   22.943950   44.963055
  H    -24.182535   23.130510   42.262908
  H    -24.621917   24.597840   43.159337
  H    -22.617086   25.537142   42.235528
  H    -21.930110   23.936951   41.879032
  H    -21.983730   21.965545   43.759072

 Multiplicity           Mult            ....    1
 Number of Electrons    NEL             ....  102
 Basis Dimension        Dim             ....  149

ORBITAL ENERGIES
----------------

  NO   OCC          E(Eh)            E(eV)
   0   2.0000     -19.153944      -521.2053
   1   2.0000     -19.145054      -520.9634
   2   2.0000     -19.132507      -520.6220
   3   2.0000     -19.126152      -520.4491
   4   2.0000     -10.263898      -279.2949
   5   2.0000     -10.250912      -278.9415
   6   2.0000     -10.242268      -278.7063
   7   2.0000     -10.239775      -278.6384
   8   2.0000     -10.233814      -278.4762
   9   2.0000     -10.214457      -277.9495
  10   2.0000     -10.197286      -277.4823
  11   2.0000     -10.174964      -276.8748
  12   2.0000     -10.173230      -276.8277
  13   2.0000      -1.048185       -28.5226
  14   2.0000      -1.036880       -28.2149
  15   2.0000      -1.014156       -27.5966
  16   2.0000      -0.982315       -26.7301
  17   2.0000      -0.792728       -21.5712
  18   2.0000      -0.777719       -21.1628
  19   2.0000      -0.767349       -20.8806
  20   2.0000      -0.727810       -19.8047
  21   2.0000      -0.674304       -18.3487
  22   2.0000      -0.612719       -16.6729
  23   2.0000      -0.606934       -16.5155
  24   2.0000      -0.587188       -15.9782
  25   2.0000      -0.565936       -15.3999
  26   2.0000      -0.533688       -14.5224
  27   2.0000      -0.509944       -13.8763
  28   2.0000      -0.493775       -13.4363
  29   2.0000      -0.482698       -13.1349
  30   2.0000      -0.475160       -12.9298
  31   2.0000      -0.456034       -12.4093
  32   2.0000      -0.449864       -12.2414
  33   2.0000      -0.436495       -11.8776
  34   2.0000      -0.425505       -11.5786
  35   2.0000      -0.409870       -11.1531
  36   2.0000      -0.401307       -10.9201
  37   2.0000      -0.393518       -10.7082
  38   2.0000      -0.381607       -10.3840
  39   2.0000      -0.368016       -10.0142
  40   2.0000      -0.362921        -9.8756
  41   2.0000      -0.345566        -9.4033
  42   2.0000      -0.340270        -9.2592
  43   2.0000      -0.334634        -9.1058
  44   2.0000      -0.323406        -8.8003
  45   2.0000      -0.308798        -8.4028
  46   2.0000      -0.295874        -8.0511
  47   2.0000      -0.279401        -7.6029
  48   2.0000      -0.258225        -7.0267
  49   2.0000      -0.251650        -6.8477
  50   2.0000      -0.234413        -6.3787
  51   0.0000       0.059327         1.6144
  52   0.0000       0.081634         2.2214
  53   0.0000       0.087696         2.3863
  54   0.0000       0.096656         2.6302
  55   0.0000       0.103158         2.8071

MULLIKEN ATOMIC CHARGES
-----------------------
   0 C :    0.260082
   1 C :   -0.247492
   2 C :   -0.296827
   3 C :    0.001095
   4 O :   -0.510493
   5 H :    0.192011
   6 H :    0.139619
   7 H :    0.145275
   8 H :    0.134196
   9 H :    0.159526
  10 H :    0.144170
  11 H :    0.136609
  12 C :    0.045094
  13 H :    0.141710
  14 H :    0.133587
  15 O :   -0.543578
  16 C :    0.010489
  17 C :    0.079090
  18 C :   -0.297000
  19 C :   -0.028406
  20 O :   -0.529587
  21 H :    0.185520
  22 O :   -0.597854
  23 H :    0.158187
  24 H :    0.166365
  25 H :    0.147546
  26 H :    0.153256
  27 H :    0.151411
  28 H :    0.366401
Sum of atomic charges:   -0.0000000

LOEWDIN ATOMIC CHARGES
----------------------
   0 C :    0.166782
   1 C :   -0.214591
   2 C :   -0.216882
   3 C :   -0.027636
   4 O :   -0.327951
   5 H :    0.119889
   6 H :    0.110717
   7 H :    0.118358
   8 H :    0.110127
   9 H :    0.117805
  10 H :    0.103527
  11 H :    0.099341
  12 C :   -0.031179
  13 H :    0.107083
  14 H :    0.099312
  15 O :   -0.333157
  16 C :   -0.002925
  17 C :    0.041040
  18 C :   -0.240491
  19 C :   -0.036907
  20 O :   -0.335207
  21 H :    0.124866
  22 O :   -0.410887
  23 H :    0.118726
  24 H :    0.128406
  25 H :    0.114706
  26 H :    0.107660
  27 H :    0.105010
  28 H :    0.284459

  Mayer bond orders larger than 0.100000
B(  0-C ,  1-C ) :   0.9444 B(  0-C ,  4-O ) :   0.9081 B(  0-C ,  5-H ) :   0.8917
B(  0-C , 15-O ) :   0.8365 B(  1-C ,  2-C ) :   0.9573 B(  1-C ,  6-H ) :   0.9406
B(  1-C ,  7-H ) :   0.9398 B(  2-C ,  3-C ) :   0.9548 B(  2-C ,  8-H ) :   0.9463
B(  2-C ,  9-H ) :   0.9442 B(  3-C ,  4-O ) :   0.8433 B(  3-C , 10-H ) :   0.9358
B(  3-C , 11-H ) :   0.9404 B( 12-C , 13-H ) :   0.9162 B( 12-C , 14-H ) :   0.9271
B( 12-C , 15-O ) :   0.8517 B( 12-C , 16-C ) :   0.9031 B( 16-C , 17-C ) :   0.8966
B( 16-C , 20-O ) :   0.8286 B( 16-C , 21-H ) :   0.9158 B( 17-C , 18-C ) :   0.9108
B( 17-C , 22-O ) :   0.8987 B( 17-C , 23-H ) :   0.9333 B( 18-C , 19-C ) :   0.9415
B( 18-C , 24-H ) :   0.9368 B( 18-C , 25-H ) :   0.9328 B( 19-C , 20-O ) :   0.8362
B( 19-C , 26-H ) :   0.9341 B( 19-C , 27-H ) :   0.9380 B( 22-O , 28-H ) :   0.7933

FINAL SINGLE POINT ENERGY      -652.859312772566

DIPOLE MOMENT
-------------
                                X             Y             Z
Electronic contribution:      0.60027      -4.38935       0.58277
Nuclear contribution   :     -1.00675       5.01774      -1.43365
                        -----------------------------------------
Total Dipole Moment    :     -0.40649       0.62839      -0.85088
                        -----------------------------------------
Magnitude (a.u.)       :      1.13318
Magnitude (Debye)      :      2.88032

Rotational constants in cm-1:     0.064934     0.012595     0.011990
Rotational constants in MHz :  1946.686997   377.581879   359.438626

                             ****ORCA TERMINATED NORMALLY****
TOTAL RUN TIME: 0 days 0 hours 24 minutes 51 seconds 6 msec
