                         Program Version 4.2.0 -  RELEASE  -
|  1> # Test redundant internal optimization
|  2> #
|  3> ! RKS B3LYP  Opt TightSCF SmallPrint
|  4>
|  5> %basis
|  6>         Basis "6-31G"
|  7> end
|  8>
|  9> %geom
| 10> Constraints
| 11> { D 4  0  15  12  315.0   C } # D for Dihedral angle
| 12> { D 0  15  12  16  285.0   C } # D for Dihedral angle
| 13> { D 0  4  3  2   C } # D for Dihedral angle
| 14> { D 4  3  2  1   C } # D for Dihedral angle
| 15> { D 3  2  1  0   C } # D for Dihedral angle
| 16> { D 2  1  0  4   C } # D for Dihedral angle
| 17> { D 1  0  4  3   C } # D for Dihedral angle
| 18> { D 16  20  19  18   C } # D for Dihedral angle
| 19> { D 20  19  18  17   C } # D for Dihedral angle
| 20> { D 19  18  17  16   C } # D for Dihedral angle
| 21> { D 18  17  16  20   C } # D for Dihedral angle
| 22> { D 17  16  20  19   C } # D for Dihedral angle
| 23> { D 15  12  16  20   C } # D for Dihedral angle
| 24> end
| 25> end
| 26>
| 27>
| 28> #%pal
| 29> #nprocs 8
| 30> #end
| 31>
| 32> * xyz 0 1
| 33> C  -21.048   26.222   46.251
| 34> C  -20.361   27.558   45.944
| 35> C  -20.329   28.222   47.341
| 36> C  -20.110   27.022   48.296
| 37> O  -20.473   25.807   47.535
| 38> H  -20.833   25.428   45.533
| 39> H  -19.344   27.382   45.576
| 40> H  -20.898   28.157   45.201
| 41> H  -19.543   28.978   47.434
| 42> H  -21.289   28.710   47.548
| 43> H  -20.733   27.082   49.195
| 44> H  -19.064   26.913   48.597
| 45> C  -23.319   25.255   47.135
| 46> H  -22.764   25.015   48.051
| 47> H  -24.330   25.572   47.420
| 48> O  -22.586   26.394   46.375
| 49> C  -23.451   23.957   46.290
| 50> C  -24.278   22.896   47.025
| 51> C  -25.721   23.393   46.771
| 52> C  -25.643   23.986   45.342
| 53> O  -24.210   24.220   45.063
| 54> H  -22.456   23.625   45.987
| 55> H  -24.121   21.913   46.568
| 56> O  -23.934   22.793   48.536
| 57> H  -26.465   22.593   46.850
| 58> H  -25.986   24.170   47.498
| 59> H  -26.185   24.935   45.252
| 60> H  -26.011   23.293   44.581
| 61> H  -24.084   23.766   49.016
| 62> *
| 63>
| 64>                          ****END OF INPUT****
 Total Charge           Charge          ....    0
 Multiplicity           Mult            ....    1
 Number of Electrons    NEL             ....  102
FINAL SINGLE POINT ENERGY      -652.831112390191
FINAL SINGLE POINT ENERGY      -652.855176431012
FINAL SINGLE POINT ENERGY      -652.859896196905
FINAL SINGLE POINT ENERGY      -652.860729793964
FINAL SINGLE POINT ENERGY      -652.860877432081
FINAL SINGLE POINT ENERGY      -652.860906068673
FINAL SINGLE POINT ENERGY      -652.860911843521
FINAL SINGLE POINT ENERGY      -652.860913206689
                    ***********************HURRAY********************

CARTESIAN COORDINATES (ANGSTROEM)
---------------------------------
  C    -21.069845   26.163411   46.262440
  C    -20.453018   27.526879   45.950599
  C    -20.403099   28.176264   47.350856
  C    -20.102467   26.984155   48.285686
  O    -20.444898   25.761875   47.506869
  H    -20.850039   25.367964   45.545080
  H    -19.446857   27.382597   45.541436
  H    -21.053582   28.091519   45.234552
  H    -19.643537   28.960845   47.424774
  H    -21.377524   28.614590   47.584918
  H    -20.694959   26.995974   49.204339
  H    -19.042573   26.900053   48.542542
  C    -23.233721   25.330496   47.118730
  H    -22.707585   25.106003   48.054133
  H    -24.195918   25.802420   47.336371
  O    -22.498833   26.355145   46.386689
  C    -23.422228   24.035365   46.325066
  C    -24.250273   22.975751   47.074567
  C    -25.709285   23.441048   46.777644
  C    -25.602366   23.992666   45.338693
  O    -24.162369   24.245832   45.083346
  H    -22.444859   23.641849   46.031834
  H    -24.068083   21.994863   46.629598
  O    -23.936973   22.797881   48.475538
  H    -26.429032   22.623516   46.870497
  H    -25.994686   24.226218   47.490602
  H    -26.158800   24.924342   45.195967
  H    -25.936326   23.266109   44.591685
  H    -24.235265   23.571367   48.995949

 Multiplicity           Mult            ....    1
 Number of Electrons    NEL             ....  102
 Basis Dimension        Dim             ....  149

ORBITAL ENERGIES
----------------

  NO   OCC          E(Eh)            E(eV)
   0   2.0000     -19.147323      -521.0252
   1   2.0000     -19.142259      -520.8873
   2   2.0000     -19.138639      -520.7888
   3   2.0000     -19.134084      -520.6649
   4   2.0000     -10.273665      -279.5606
   5   2.0000     -10.243198      -278.7316
   6   2.0000     -10.228478      -278.3310
   7   2.0000     -10.227338      -278.3000
   8   2.0000     -10.226116      -278.2668
   9   2.0000     -10.223689      -278.2007
  10   2.0000     -10.193669      -277.3838
  11   2.0000     -10.184064      -277.1225
  12   2.0000     -10.182011      -277.0666
  13   2.0000      -1.051975       -28.6257
  14   2.0000      -1.031256       -28.0619
  15   2.0000      -1.013144       -27.5691
  16   2.0000      -0.988855       -26.9081
  17   2.0000      -0.787740       -21.4355
  18   2.0000      -0.779503       -21.2113
  19   2.0000      -0.762274       -20.7425
  20   2.0000      -0.731211       -19.8973
  21   2.0000      -0.676469       -18.4077
  22   2.0000      -0.609044       -16.5729
  23   2.0000      -0.600655       -16.3447
  24   2.0000      -0.596113       -16.2211
  25   2.0000      -0.561910       -15.2904
  26   2.0000      -0.528201       -14.3731
  27   2.0000      -0.508105       -13.8262
  28   2.0000      -0.497077       -13.5261
  29   2.0000      -0.490418       -13.3449
  30   2.0000      -0.467322       -12.7165
  31   2.0000      -0.453949       -12.3526
  32   2.0000      -0.438864       -11.9421
  33   2.0000      -0.432065       -11.7571
  34   2.0000      -0.425044       -11.5660
  35   2.0000      -0.416742       -11.3401
  36   2.0000      -0.403849       -10.9893
  37   2.0000      -0.398602       -10.8465
  38   2.0000      -0.375458       -10.2167
  39   2.0000      -0.368515       -10.0278
  40   2.0000      -0.355769        -9.6810
  41   2.0000      -0.352850        -9.6015
  42   2.0000      -0.344868        -9.3843
  43   2.0000      -0.332318        -9.0428
  44   2.0000      -0.327423        -8.9096
  45   2.0000      -0.311481        -8.4758
  46   2.0000      -0.293715        -7.9924
  47   2.0000      -0.269960        -7.3460
  48   2.0000      -0.266132        -7.2418
  49   2.0000      -0.256323        -6.9749
  50   2.0000      -0.232430        -6.3247
  51   0.0000       0.054297         1.4775
  52   0.0000       0.080736         2.1969
  53   0.0000       0.090842         2.4719
  54   0.0000       0.091440         2.4882
  55   0.0000       0.107666         2.9297

MULLIKEN ATOMIC CHARGES
-----------------------
   0 C :    0.285602
   1 C :   -0.261093
   2 C :   -0.299511
   3 C :   -0.008033
   4 O :   -0.515705
   5 H :    0.154886
   6 H :    0.144298
   7 H :    0.163405
   8 H :    0.141725
   9 H :    0.159941
  10 H :    0.142225
  11 H :    0.146088
  12 C :   -0.027801
  13 H :    0.153505
  14 H :    0.137515
  15 O :   -0.513366
  16 C :    0.080138
  17 C :    0.087537
  18 C :   -0.327980
  19 C :   -0.008793
  20 O :   -0.508728
  21 H :    0.161983
  22 H :    0.166780
  23 O :   -0.597128
  24 H :    0.159247
  25 H :    0.133097
  26 H :    0.145346
  27 H :    0.149633
  28 H :    0.355188
Sum of atomic charges:   -0.0000000

LOEWDIN ATOMIC CHARGES
----------------------
   0 C :    0.173304
   1 C :   -0.213077
   2 C :   -0.217014
   3 C :   -0.029305
   4 O :   -0.328843
   5 H :    0.099316
   6 H :    0.113651
   7 H :    0.127619
   8 H :    0.113875
   9 H :    0.118002
  10 H :    0.102340
  11 H :    0.104494
  12 C :   -0.057796
  13 H :    0.108863
  14 H :    0.105471
  15 O :   -0.318404
  16 C :    0.009600
  17 C :    0.036033
  18 C :   -0.243066
  19 C :   -0.029972
  20 O :   -0.318533
  21 H :    0.115872
  22 H :    0.118931
  23 O :   -0.404670
  24 H :    0.123129
  25 H :    0.103773
  26 H :    0.103509
  27 H :    0.105800
  28 H :    0.277097

  Mayer bond orders larger than 0.100000
B(  0-C ,  1-C ) :   0.9486 B(  0-C ,  4-O ) :   0.8916 B(  0-C ,  5-H ) :   0.9170
B(  0-C , 15-O ) :   0.8598 B(  1-C ,  2-C ) :   0.9542 B(  1-C ,  6-H ) :   0.9398
B(  1-C ,  7-H ) :   0.9349 B(  2-C ,  3-C ) :   0.9558 B(  2-C ,  8-H ) :   0.9451
B(  2-C ,  9-H ) :   0.9447 B(  3-C ,  4-O ) :   0.8348 B(  3-C , 10-H ) :   0.9360
B(  3-C , 11-H ) :   0.9407 B( 12-C , 13-H ) :   0.8966 B( 12-C , 14-H ) :   0.9404
B( 12-C , 15-O ) :   0.8621 B( 12-C , 16-C ) :   0.8851 B( 16-C , 17-C ) :   0.8724
B( 16-C , 20-O ) :   0.8658 B( 16-C , 21-H ) :   0.9289 B( 17-C , 18-C ) :   0.9208
B( 17-C , 22-H ) :   0.9335 B( 17-C , 23-O ) :   0.9005 B( 18-C , 19-C ) :   0.9405
B( 18-C , 24-H ) :   0.9415 B( 18-C , 25-H ) :   0.9419 B( 19-C , 20-O ) :   0.8489
B( 19-C , 26-H ) :   0.9314 B( 19-C , 27-H ) :   0.9375 B( 23-O , 28-H ) :   0.7977

FINAL SINGLE POINT ENERGY      -652.860913475335

DIPOLE MOMENT
-------------
                                X             Y             Z
Electronic contribution:      0.20971      -3.29363      -1.17081
Nuclear contribution   :     -0.66961       3.98116       1.63279
                        -----------------------------------------
Total Dipole Moment    :     -0.45990       0.68754       0.46198
                        -----------------------------------------
Magnitude (a.u.)       :      0.94744
Magnitude (Debye)      :      2.40820

Rotational constants in cm-1:     0.056568     0.013413     0.011833
Rotational constants in MHz :  1695.874028   402.120321   354.756628

                             ****ORCA TERMINATED NORMALLY****
TOTAL RUN TIME: 0 days 0 hours 18 minutes 32 seconds 924 msec
