                         Program Version 4.2.1 -  RELEASE  -
|  1> # Test redundant internal optimization
|  2> #
|  3> ! RKS B3LYP  Opt TightSCF SmallPrint
|  4>
|  5> %basis
|  6>         Basis "6-31G"
|  7> end
|  8>
|  9> %geom
| 10> Constraints
| 11> { D 4  0  19  14  330.0   C } # D for Dihedral angle
| 12> { D 0  19  14  12  135.0   C } # D for Dihedral angle
| 13> { D 0  4  3  2   C } # D for Dihedral angle
| 14> { D 4  3  2  1   C } # D for Dihedral angle
| 15> { D 3  2  1  0   C } # D for Dihedral angle
| 16> { D 2  1  0  4   C } # D for Dihedral angle
| 17> { D 1  0  4  3   C } # D for Dihedral angle
| 18> { D 14  15  16  17   C } # D for Dihedral angle
| 19> { D 15  16  17  12   C } # D for Dihedral angle
| 20> { D 16  17  12  14   C } # D for Dihedral angle
| 21> { D 17  12  14  15   C } # D for Dihedral angle
| 22> { D 12  14  15  16   C } # D for Dihedral angle
| 23> end
| 24> end
| 25>
| 26>
| 27> #%pal
| 28> #nprocs 8
| 29> #end
| 30>
| 31> * xyz 0 1
| 32> C  -21.048   26.222   46.251
| 33> C  -20.361   27.558   45.944
| 34> C  -20.329   28.222   47.341
| 35> C  -20.110   27.022   48.296
| 36> O  -20.473   25.807   47.535
| 37> H  -20.833   25.428   45.533
| 38> H  -19.344   27.382   45.576
| 39> H  -20.898   28.157   45.201
| 40> H  -19.543   28.978   47.434
| 41> H  -21.289   28.710   47.548
| 42> H  -20.733   27.082   49.195
| 43> H  -19.064   26.913   48.597
| 44> C  -24.085   26.321   48.188
| 45> H  -24.350   25.781   49.110
| 46> C  -23.087   25.523   47.341
| 47> C  -24.012   24.492   46.655
| 48> C  -25.319   25.290   46.423
| 49> O  -25.261   26.463   47.323
| 50> H  -23.755   27.329   48.446
| 51> O  -22.472   26.381   46.366
| 52> H  -22.296   25.055   47.936
| 53> H  -23.593   24.097   45.724
| 54> H  -24.193   23.642   47.326
| 55> H  -26.216   24.705   46.653
| 56> H  -25.399   25.672   45.400
| 57> *
| 58>
| 59>                          ****END OF INPUT****
 Total Charge           Charge          ....    0
 Multiplicity           Mult            ....    1
 Number of Electrons    NEL             ....   86
FINAL SINGLE POINT ENERGY      -538.431251663175
FINAL SINGLE POINT ENERGY      -538.434617401116
FINAL SINGLE POINT ENERGY      -538.435092948574
FINAL SINGLE POINT ENERGY      -538.435193258795
FINAL SINGLE POINT ENERGY      -538.435204313696
FINAL SINGLE POINT ENERGY      -538.435208102886
                    ***********************HURRAY********************

CARTESIAN COORDINATES (ANGSTROEM)
---------------------------------
  C    -20.995170   26.191335   46.281742
  C    -20.427703   27.573081   45.957505
  C    -20.361248   28.221396   47.357733
  C    -20.001257   27.038454   48.282359
  O    -20.328086   25.806583   47.506888
  H    -20.760204   25.403410   45.559479
  H    -19.428126   27.460075   45.522589
  H    -21.064131   28.121290   45.259997
  H    -19.623837   29.028075   47.413224
  H    -21.341096   28.633019   47.616966
  H    -20.570723   27.028752   49.215541
  H    -18.933413   26.983061   48.511515
  C    -24.115890   26.327784   48.173947
  H    -24.439670   25.810892   49.089941
  C    -23.117203   25.470467   47.395826
  C    -24.051442   24.476827   46.679714
  C    -25.304336   25.328107   46.364797
  O    -25.234909   26.511763   47.249442
  H    -23.728475   27.316560   48.423581
  O    -22.436972   26.315869   46.412697
  H    -22.373870   24.986511   48.033930
  H    -23.584390   24.061591   45.783198
  H    -24.295335   23.649242   47.356297
  H    -26.239260   24.789926   46.557213
  H    -25.306253   25.697932   45.335877

 Multiplicity           Mult            ....    1
 Number of Electrons    NEL             ....   86
 Basis Dimension        Dim             ....  127

ORBITAL ENERGIES
----------------

  NO   OCC          E(Eh)            E(eV)
   0   2.0000     -19.150284      -521.1057
   1   2.0000     -19.137305      -520.7525
   2   2.0000     -19.122320      -520.3448
   3   2.0000     -10.279694      -279.7247
   4   2.0000     -10.231962      -278.4259
   5   2.0000     -10.231446      -278.4118
   6   2.0000     -10.217058      -278.0203
   7   2.0000     -10.215067      -277.9661
   8   2.0000     -10.188703      -277.2487
   9   2.0000     -10.185791      -277.1695
  10   2.0000     -10.179919      -277.0097
  11   2.0000      -1.055466       -28.7207
  12   2.0000      -1.010454       -27.4958
  13   2.0000      -0.986630       -26.8476
  14   2.0000      -0.793471       -21.5914
  15   2.0000      -0.774870       -21.0853
  16   2.0000      -0.738624       -20.0990
  17   2.0000      -0.719608       -19.5815
  18   2.0000      -0.611550       -16.6411
  19   2.0000      -0.599310       -16.3081
  20   2.0000      -0.593876       -16.1602
  21   2.0000      -0.565261       -15.3815
  22   2.0000      -0.521693       -14.1960
  23   2.0000      -0.501423       -13.6444
  24   2.0000      -0.486423       -13.2362
  25   2.0000      -0.479151       -13.0384
  26   2.0000      -0.452740       -12.3197
  27   2.0000      -0.432351       -11.7649
  28   2.0000      -0.429638       -11.6911
  29   2.0000      -0.413746       -11.2586
  30   2.0000      -0.409098       -11.1321
  31   2.0000      -0.378687       -10.3046
  32   2.0000      -0.370248       -10.0750
  33   2.0000      -0.363819        -9.9000
  34   2.0000      -0.360170        -9.8007
  35   2.0000      -0.354600        -9.6492
  36   2.0000      -0.344079        -9.3629
  37   2.0000      -0.334142        -9.0925
  38   2.0000      -0.300543        -8.1782
  39   2.0000      -0.293071        -7.9749
  40   2.0000      -0.266274        -7.2457
  41   2.0000      -0.255115        -6.9420
  42   2.0000      -0.227486        -6.1902
  43   0.0000       0.075863         2.0643
  44   0.0000       0.096475         2.6252
  45   0.0000       0.101541         2.7631
  46   0.0000       0.107219         2.9176
  47   0.0000       0.109727         2.9858

MULLIKEN ATOMIC CHARGES
-----------------------
   0 C :    0.297427
   1 C :   -0.259460
   2 C :   -0.303451
   3 C :   -0.014723
   4 O :   -0.514485
   5 H :    0.146764
   6 H :    0.143512
   7 H :    0.165626
   8 H :    0.145292
   9 H :    0.162862
  10 H :    0.144729
  11 H :    0.149895
  12 C :    0.008806
  13 H :    0.121817
  14 C :    0.047291
  15 C :   -0.284043
  16 C :    0.006372
  17 O :   -0.521905
  18 H :    0.150647
  19 O :   -0.527704
  20 H :    0.165028
  21 H :    0.149356
  22 H :    0.139148
  23 H :    0.131003
  24 H :    0.150195
Sum of atomic charges:   -0.0000000

LOEWDIN ATOMIC CHARGES
----------------------
   0 C :    0.179472
   1 C :   -0.215347
   2 C :   -0.217391
   3 C :   -0.031059
   4 O :   -0.324858
   5 H :    0.096756
   6 H :    0.113322
   7 H :    0.128721
   8 H :    0.116177
   9 H :    0.118214
  10 H :    0.103257
  11 H :    0.106579
  12 C :   -0.038110
  13 H :    0.090034
  14 C :    0.030345
  15 C :   -0.229750
  16 C :   -0.027709
  17 O :   -0.331390
  18 H :    0.113418
  19 O :   -0.332206
  20 H :    0.116696
  21 H :    0.121016
  22 H :    0.110871
  23 H :    0.096215
  24 H :    0.106724

  Mayer bond orders larger than 0.100000
B(  0-C ,  1-C ) :   0.9436 B(  0-C ,  4-O ) :   0.8989 B(  0-C ,  5-H ) :   0.9235
B(  0-C , 19-O ) :   0.8571 B(  1-C ,  2-C ) :   0.9538 B(  1-C ,  6-H ) :   0.9375
B(  1-C ,  7-H ) :   0.9344 B(  2-C ,  3-C ) :   0.9558 B(  2-C ,  8-H ) :   0.9444
B(  2-C ,  9-H ) :   0.9421 B(  3-C ,  4-O ) :   0.8288 B(  3-C , 10-H ) :   0.9353
B(  3-C , 11-H ) :   0.9405 B( 12-C , 13-H ) :   0.9136 B( 12-C , 14-C ) :   0.9336
B( 12-C , 17-O ) :   0.8715 B( 12-C , 18-H ) :   0.9329 B( 14-C , 15-C ) :   0.9400
B( 14-C , 19-O ) :   0.8196 B( 14-C , 20-H ) :   0.9052 B( 15-C , 16-C ) :   0.9471
B( 15-C , 21-H ) :   0.9420 B( 15-C , 22-H ) :   0.9397 B( 16-C , 17-O ) :   0.8557
B( 16-C , 23-H ) :   0.9341 B( 16-C , 24-H ) :   0.9369

FINAL SINGLE POINT ENERGY      -538.435208239304

DIPOLE MOMENT
-------------
                                X             Y             Z
Electronic contribution:     -1.02308      -0.93577      -0.54537
Nuclear contribution   :      1.86071       0.78075       0.71781
                        -----------------------------------------
Total Dipole Moment    :      0.83763      -0.15502       0.17244
                        -----------------------------------------
Magnitude (a.u.)       :      0.86913
Magnitude (Debye)      :      2.20915

Rotational constants in cm-1:     0.079812     0.021260     0.020723
Rotational constants in MHz :  2392.710102   637.370680   621.271423

                             ****ORCA TERMINATED NORMALLY****
TOTAL RUN TIME: 0 days 0 hours 7 minutes 1 seconds 709 msec
