                         Program Version 4.2.1 -  RELEASE  -
|  1> # Test redundant internal optimization
|  2> #
|  3> ! RKS B3LYP  Opt TightSCF SmallPrint
|  4>
|  5> %basis
|  6>         Basis "6-31G"
|  7> end
|  8>
|  9> %geom
| 10> Constraints
| 11> { D 4  0  19  14  210.0   C } # D for Dihedral angle
| 12> { D 0  19  14  12  270.0   C } # D for Dihedral angle
| 13> { D 0  4  3  2   C } # D for Dihedral angle
| 14> { D 4  3  2  1   C } # D for Dihedral angle
| 15> { D 3  2  1  0   C } # D for Dihedral angle
| 16> { D 2  1  0  4   C } # D for Dihedral angle
| 17> { D 1  0  4  3   C } # D for Dihedral angle
| 18> { D 14  15  16  17   C } # D for Dihedral angle
| 19> { D 15  16  17  12   C } # D for Dihedral angle
| 20> { D 16  17  12  14   C } # D for Dihedral angle
| 21> { D 17  12  14  15   C } # D for Dihedral angle
| 22> { D 12  14  15  16   C } # D for Dihedral angle
| 23> end
| 24> end
| 25>
| 26>
| 27> #%pal
| 28> #nprocs 8
| 29> #end
| 30>
| 31> * xyz 0 1
| 32> C  -21.048   26.222   46.251
| 33> C  -20.361   27.558   45.944
| 34> C  -20.329   28.222   47.341
| 35> C  -20.110   27.022   48.296
| 36> O  -20.473   25.807   47.535
| 37> H  -20.833   25.428   45.533
| 38> H  -19.344   27.382   45.576
| 39> H  -20.898   28.157   45.201
| 40> H  -19.543   28.978   47.434
| 41> H  -21.289   28.710   47.548
| 42> H  -20.733   27.082   49.195
| 43> H  -19.064   26.913   48.597
| 44> C  -23.339   27.401   44.333
| 45> H  -24.120   27.301   43.564
| 46> C  -23.197   26.114   45.155
| 47> C  -22.365   25.224   44.204
| 48> C  -21.424   26.237   43.506
| 49> O  -22.024   27.575   43.707
| 50> H  -23.532   28.297   44.925
| 51> O  -22.472   26.381   46.366
| 52> H  -24.161   25.667   45.421
| 53> H  -21.814   24.438   44.730
| 54> H  -23.021   24.738   43.470
| 55> H  -21.323   26.047   42.432
| 56> H  -20.427   26.261   43.956
| 57> *
| 58>
| 59>                          ****END OF INPUT****
 Total Charge           Charge          ....    0
 Multiplicity           Mult            ....    1
 Number of Electrons    NEL             ....   86
FINAL SINGLE POINT ENERGY      -538.402301017671
FINAL SINGLE POINT ENERGY      -538.426424657391
FINAL SINGLE POINT ENERGY      -538.428564663524
FINAL SINGLE POINT ENERGY      -538.428937172344
FINAL SINGLE POINT ENERGY      -538.428984395046
FINAL SINGLE POINT ENERGY      -538.428998327351
FINAL SINGLE POINT ENERGY      -538.428999427298
                    ***********************HURRAY********************

CARTESIAN COORDINATES (ANGSTROEM)
---------------------------------
  C    -20.808638   26.271412   46.304120
  C    -20.160105   27.640506   46.108580
  C    -20.348050   28.285002   47.502287
  C    -20.196523   27.085026   48.461244
  O    -20.396759   25.873383   47.623820
  H    -20.472641   25.490604   45.619991
  H    -19.093475   27.503509   45.889616
  H    -20.616611   28.200695   45.290138
  H    -19.618127   29.074953   47.702289
  H    -21.351886   28.713496   47.579079
  H    -20.936262   27.078371   49.266077
  H    -19.192620   27.006255   48.889800
  C    -23.301812   27.385372   44.303567
  H    -24.221523   27.308066   43.705905
  C    -23.070171   26.111248   45.122112
  C    -22.488724   25.162649   44.057475
  C    -21.647881   26.098508   43.153595
  O    -22.125390   27.478305   43.424223
  H    -23.331403   28.284974   44.918997
  O    -22.261780   26.364235   46.309954
  H    -24.008346   25.725415   45.531663
  H    -21.913738   24.336724   44.485449
  H    -23.321377   24.726410   43.495439
  H    -21.781010   25.882754   42.087748
  H    -20.579149   26.074126   43.386831

 Multiplicity           Mult            ....    1
 Number of Electrons    NEL             ....   86
 Basis Dimension        Dim             ....  127

ORBITAL ENERGIES
----------------

  NO   OCC          E(Eh)            E(eV)
   0   2.0000     -19.141747      -520.8734
   1   2.0000     -19.135845      -520.7128
   2   2.0000     -19.133219      -520.6414
   3   2.0000     -10.274669      -279.5880
   4   2.0000     -10.244178      -278.7582
   5   2.0000     -10.232728      -278.4467
   6   2.0000     -10.225894      -278.2607
   7   2.0000     -10.218647      -278.0635
   8   2.0000     -10.196653      -277.4650
   9   2.0000     -10.178656      -276.9753
  10   2.0000     -10.173723      -276.8411
  11   2.0000      -1.047498       -28.5039
  12   2.0000      -1.020399       -27.7665
  13   2.0000      -0.985642       -26.8207
  14   2.0000      -0.789780       -21.4910
  15   2.0000      -0.775458       -21.1013
  16   2.0000      -0.749283       -20.3890
  17   2.0000      -0.719052       -19.5664
  18   2.0000      -0.617575       -16.8051
  19   2.0000      -0.608436       -16.5564
  20   2.0000      -0.591920       -16.1070
  21   2.0000      -0.564061       -15.3489
  22   2.0000      -0.523251       -14.2384
  23   2.0000      -0.506858       -13.7923
  24   2.0000      -0.483106       -13.1460
  25   2.0000      -0.478657       -13.0249
  26   2.0000      -0.453584       -12.3427
  27   2.0000      -0.437459       -11.9039
  28   2.0000      -0.434022       -11.8103
  29   2.0000      -0.418805       -11.3963
  30   2.0000      -0.399958       -10.8834
  31   2.0000      -0.391944       -10.6654
  32   2.0000      -0.376750       -10.2519
  33   2.0000      -0.370852       -10.0914
  34   2.0000      -0.361473        -9.8362
  35   2.0000      -0.348931        -9.4949
  36   2.0000      -0.343239        -9.3400
  37   2.0000      -0.317975        -8.6525
  38   2.0000      -0.305532        -8.3139
  39   2.0000      -0.296083        -8.0568
  40   2.0000      -0.260192        -7.0802
  41   2.0000      -0.254135        -6.9154
  42   2.0000      -0.235314        -6.4032
  43   0.0000       0.072623         1.9762
  44   0.0000       0.088193         2.3999
  45   0.0000       0.101228         2.7546
  46   0.0000       0.102830         2.7982
  47   0.0000       0.108756         2.9594

MULLIKEN ATOMIC CHARGES
-----------------------
   0 C :    0.295099
   1 C :   -0.273798
   2 C :   -0.300708
   3 C :   -0.001668
   4 O :   -0.506078
   5 H :    0.134270
   6 H :    0.136458
   7 H :    0.177687
   8 H :    0.139111
   9 H :    0.156378
  10 H :    0.151142
  11 H :    0.138752
  12 C :   -0.012471
  13 H :    0.128430
  14 C :    0.096059
  15 C :   -0.327678
  16 C :   -0.018320
  17 O :   -0.521732
  18 H :    0.164705
  19 O :   -0.520155
  20 H :    0.150109
  21 H :    0.164709
  22 H :    0.153527
  23 H :    0.146196
  24 H :    0.149977
Sum of atomic charges:   -0.0000000

LOEWDIN ATOMIC CHARGES
----------------------
   0 C :    0.180195
   1 C :   -0.233350
   2 C :   -0.216969
   3 C :   -0.026350
   4 O :   -0.310270
   5 H :    0.094406
   6 H :    0.110228
   7 H :    0.130374
   8 H :    0.113019
   9 H :    0.115827
  10 H :    0.107297
  11 H :    0.100637
  12 C :   -0.048742
  13 H :    0.094705
  14 C :    0.045060
  15 C :   -0.239871
  16 C :   -0.037952
  17 O :   -0.335064
  18 H :    0.119581
  19 O :   -0.329039
  20 H :    0.113152
  21 H :    0.125415
  22 H :    0.121957
  23 H :    0.103451
  24 H :    0.102305

  Mayer bond orders larger than 0.100000
B(  0-C ,  1-C ) :   0.9317 B(  0-C ,  4-O ) :   0.9305 B(  0-C ,  5-H ) :   0.9131
B(  0-C , 19-O ) :   0.8315 B(  1-C ,  2-C ) :   0.9523 B(  1-C ,  6-H ) :   0.9355
B(  1-C ,  7-H ) :   0.9161 B(  2-C ,  3-C ) :   0.9537 B(  2-C ,  8-H ) :   0.9454
B(  2-C ,  9-H ) :   0.9448 B(  3-C ,  4-O ) :   0.8369 B(  3-C , 10-H ) :   0.9353
B(  3-C , 11-H ) :   0.9400 B( 12-C , 13-H ) :   0.9151 B( 12-C , 14-C ) :   0.9064
B( 12-C , 17-O ) :   0.8512 B( 12-C , 18-H ) :   0.9329 B( 14-C , 15-C ) :   0.9350
B( 14-C , 19-O ) :   0.8777 B( 14-C , 20-H ) :   0.9336 B( 15-C , 16-C ) :   0.9414
B( 15-C , 21-H ) :   0.9310 B( 15-C , 22-H ) :   0.9370 B( 16-C , 17-O ) :   0.8539
B( 16-C , 23-H ) :   0.9331 B( 16-C , 24-H ) :   0.9304

FINAL SINGLE POINT ENERGY      -538.428999751906

DIPOLE MOMENT
-------------
                                X             Y             Z
Electronic contribution:     -1.04767      -1.47758       0.95287
Nuclear contribution   :      0.87606       1.43839      -1.41921
                        -----------------------------------------
Total Dipole Moment    :     -0.17161      -0.03919      -0.46634
                        -----------------------------------------
Magnitude (a.u.)       :      0.49845
Magnitude (Debye)      :      1.26697

Rotational constants in cm-1:     0.075404     0.023901     0.022475
Rotational constants in MHz :  2260.561923   716.544348   673.796695

                             ****ORCA TERMINATED NORMALLY****
TOTAL RUN TIME: 0 days 0 hours 10 minutes 2 seconds 170 msec
