                         Program Version 4.2.0 -  RELEASE  -
|  1> # Test redundant internal optimization
|  2> #
|  3> ! RKS B3LYP  Opt TightSCF SmallPrint
|  4>
|  5> %basis
|  6>         Basis "6-31G"
|  7> end
|  8>
|  9> %geom
| 10> Constraints
| 11> { D 4  0  15  12  60.0   C } # D for Dihedral angle
| 12> { D 0  15  12  16  135.0   C } # D for Dihedral angle
| 13> { D 0  4  3  2   C } # D for Dihedral angle
| 14> { D 4  3  2  1   C } # D for Dihedral angle
| 15> { D 3  2  1  0   C } # D for Dihedral angle
| 16> { D 2  1  0  4   C } # D for Dihedral angle
| 17> { D 1  0  4  3   C } # D for Dihedral angle
| 18> { D 16  20  19  18   C } # D for Dihedral angle
| 19> { D 20  19  18  17   C } # D for Dihedral angle
| 20> { D 19  18  17  16   C } # D for Dihedral angle
| 21> { D 18  17  16  20   C } # D for Dihedral angle
| 22> { D 17  16  20  19   C } # D for Dihedral angle
| 23> { D 15  12  16  20   C } # D for Dihedral angle
| 24> end
| 25> end
| 26>
| 27>
| 28> #%pal
| 29> #nprocs 8
| 30> #end
| 31>
| 32> * xyz 0 1
| 33> C  -21.048   26.222   46.251
| 34> C  -20.361   27.558   45.944
| 35> C  -20.329   28.222   47.341
| 36> C  -20.110   27.022   48.296
| 37> O  -20.473   25.807   47.535
| 38> H  -20.833   25.428   45.533
| 39> H  -19.344   27.382   45.576
| 40> H  -20.898   28.157   45.201
| 41> H  -19.543   28.978   47.434
| 42> H  -21.289   28.710   47.548
| 43> H  -20.733   27.082   49.195
| 44> H  -19.064   26.913   48.597
| 45> C  -23.051   27.452   47.413
| 46> H  -23.428   26.940   48.307
| 47> H  -22.210   28.091   47.713
| 48> O  -22.586   26.394   46.375
| 49> C  -24.175   28.375   46.868
| 50> C  -24.527   29.477   47.874
| 51> C  -23.376   30.486   47.649
| 52> C  -23.106   30.378   46.127
| 53> O  -23.710   29.104   45.683
| 54> H  -25.022   27.761   46.555
| 55> H  -25.492   29.927   47.617
| 56> O  -24.601   28.965   49.338
| 57> H  -23.639   31.504   47.954
| 58> H  -22.492   30.182   48.221
| 59> H  -22.036   30.369   45.891
| 60> H  -23.589   31.179   45.559
| 61> H  -23.645   28.510   49.619
| 62> *
| 63>
| 64>                          ****END OF INPUT****
 Total Charge           Charge          ....    0
 Multiplicity           Mult            ....    1
 Number of Electrons    NEL             ....  102
FINAL SINGLE POINT ENERGY      -652.785345402943
FINAL SINGLE POINT ENERGY      -652.824180024214
FINAL SINGLE POINT ENERGY      -652.844900782971
FINAL SINGLE POINT ENERGY      -652.849138519151
FINAL SINGLE POINT ENERGY      -652.849689853202
FINAL SINGLE POINT ENERGY      -652.849851377221
FINAL SINGLE POINT ENERGY      -652.849885893824
FINAL SINGLE POINT ENERGY      -652.849891913182
FINAL SINGLE POINT ENERGY      -652.849892022142
                    ***********************HURRAY********************

CARTESIAN COORDINATES (ANGSTROEM)
---------------------------------
  C    -21.163628   26.315061   46.374151
  C    -20.251880   27.463733   45.914600
  C    -19.800900   28.083097   47.270449
  C    -19.695288   26.837735   48.189330
  O    -20.473229   25.765023   47.524500
  H    -21.206603   25.504685   45.644290
  H    -19.396017   27.042554   45.377552
  H    -20.781449   28.165637   45.265893
  H    -18.840195   28.602627   47.190111
  H    -20.530808   28.808793   47.638233
  H    -20.099572   27.003860   49.193285
  H    -18.666249   26.477060   48.277571
  C    -23.073391   27.517771   47.553531
  H    -23.534791   26.937302   48.361927
  H    -22.283368   28.140184   47.982944
  O    -22.558596   26.592984   46.559723
  C    -24.135225   28.379642   46.873087
  C    -24.770533   29.453716   47.774063
  C    -23.722877   30.603061   47.685517
  C    -23.216005   30.494959   46.230910
  O    -23.587803   29.138271   45.748549
  H    -24.882644   27.710146   46.438947
  H    -25.720820   29.771711   47.341139
  O    -25.107983   29.029824   49.115703
  H    -24.159022   31.578980   47.914485
  H    -22.914987   30.418305   48.406611
  H    -22.131651   30.620819   46.145848
  H    -23.705088   31.213954   45.567848
  H    -24.299396   28.903505   49.653205

 Multiplicity           Mult            ....    1
 Number of Electrons    NEL             ....  102
 Basis Dimension        Dim             ....  149

ORBITAL ENERGIES
----------------

  NO   OCC          E(Eh)            E(eV)
   0   2.0000     -19.152917      -521.1774
   1   2.0000     -19.142723      -520.9000
   2   2.0000     -19.140761      -520.8466
   3   2.0000     -19.139245      -520.8053
   4   2.0000     -10.275327      -279.6058
   5   2.0000     -10.248473      -278.8751
   6   2.0000     -10.235687      -278.5272
   7   2.0000     -10.232608      -278.4434
   8   2.0000     -10.231915      -278.4245
   9   2.0000     -10.231080      -278.4018
  10   2.0000     -10.200300      -277.5643
  11   2.0000     -10.195175      -277.4248
  12   2.0000     -10.185796      -277.1696
  13   2.0000      -1.050208       -28.5776
  14   2.0000      -1.036544       -28.2058
  15   2.0000      -1.019274       -27.7358
  16   2.0000      -0.993835       -27.0436
  17   2.0000      -0.788134       -21.4462
  18   2.0000      -0.786796       -21.4098
  19   2.0000      -0.774998       -21.0888
  20   2.0000      -0.733342       -19.9552
  21   2.0000      -0.686027       -18.6677
  22   2.0000      -0.615579       -16.7507
  23   2.0000      -0.604609       -16.4523
  24   2.0000      -0.599034       -16.3006
  25   2.0000      -0.574697       -15.6383
  26   2.0000      -0.529548       -14.4097
  27   2.0000      -0.511796       -13.9267
  28   2.0000      -0.506072       -13.7709
  29   2.0000      -0.492799       -13.4098
  30   2.0000      -0.468009       -12.7352
  31   2.0000      -0.462431       -12.5834
  32   2.0000      -0.451215       -12.2782
  33   2.0000      -0.436821       -11.8865
  34   2.0000      -0.430471       -11.7137
  35   2.0000      -0.417249       -11.3539
  36   2.0000      -0.414352       -11.2751
  37   2.0000      -0.404760       -11.0141
  38   2.0000      -0.383568       -10.4374
  39   2.0000      -0.378343       -10.2952
  40   2.0000      -0.361685        -9.8420
  41   2.0000      -0.358311        -9.7502
  42   2.0000      -0.345036        -9.3889
  43   2.0000      -0.336783        -9.1643
  44   2.0000      -0.318377        -8.6635
  45   2.0000      -0.315050        -8.5729
  46   2.0000      -0.304135        -8.2759
  47   2.0000      -0.274282        -7.4636
  48   2.0000      -0.262109        -7.1324
  49   2.0000      -0.256523        -6.9803
  50   2.0000      -0.240258        -6.5377
  51   0.0000       0.042334         1.1520
  52   0.0000       0.054619         1.4863
  53   0.0000       0.082541         2.2461
  54   0.0000       0.089490         2.4351
  55   0.0000       0.100974         2.7476

MULLIKEN ATOMIC CHARGES
-----------------------
   0 C :    0.300743
   1 C :   -0.276185
   2 C :   -0.322052
   3 C :   -0.011301
   4 O :   -0.505982
   5 H :    0.168208
   6 H :    0.151906
   7 H :    0.171405
   8 H :    0.144029
   9 H :    0.143605
  10 H :    0.138169
  11 H :    0.149603
  12 C :   -0.009459
  13 H :    0.149076
  14 H :    0.108370
  15 O :   -0.514840
  16 C :    0.096058
  17 C :    0.085067
  18 C :   -0.319925
  19 C :   -0.017867
  20 O :   -0.508103
  21 H :    0.171297
  22 H :    0.170508
  23 O :   -0.597728
  24 H :    0.156672
  25 H :    0.129338
  26 H :    0.140187
  27 H :    0.154073
  28 H :    0.355126
Sum of atomic charges:   -0.0000000

LOEWDIN ATOMIC CHARGES
----------------------
   0 C :    0.177882
   1 C :   -0.229494
   2 C :   -0.225662
   3 C :   -0.035671
   4 O :   -0.323815
   5 H :    0.114550
   6 H :    0.120054
   7 H :    0.129301
   8 H :    0.114794
   9 H :    0.102692
  10 H :    0.098827
  11 H :    0.105866
  12 C :   -0.047730
  13 H :    0.108529
  14 H :    0.087637
  15 O :   -0.308584
  16 C :    0.018876
  17 C :    0.035319
  18 C :   -0.241057
  19 C :   -0.033403
  20 O :   -0.317010
  21 H :    0.123084
  22 H :    0.121116
  23 O :   -0.404943
  24 H :    0.122894
  25 H :    0.101265
  26 H :    0.099162
  27 H :    0.108137
  28 H :    0.277381

  Mayer bond orders larger than 0.100000
B(  0-C ,  1-C ) :   0.9149 B(  0-C ,  4-O ) :   0.8955 B(  0-C ,  5-H ) :   0.9363
B(  0-C , 15-O ) :   0.9052 B(  1-C ,  2-C ) :   0.9560 B(  1-C ,  6-H ) :   0.9351
B(  1-C ,  7-H ) :   0.9282 B(  2-C ,  3-C ) :   0.9455 B(  2-C ,  8-H ) :   0.9446
B(  2-C ,  9-H ) :   0.9375 B(  3-C ,  4-O ) :   0.8513 B(  3-C , 10-H ) :   0.9341
B(  3-C , 11-H ) :   0.9382 B( 12-C , 13-H ) :   0.9143 B( 12-C , 14-H ) :   0.9095
B( 12-C , 15-O ) :   0.8409 B( 12-C , 16-C ) :   0.9041 B( 16-C , 17-C ) :   0.8738
B( 16-C , 20-O ) :   0.8615 B( 16-C , 21-H ) :   0.9275 B( 17-C , 18-C ) :   0.9186
B( 17-C , 22-H ) :   0.9325 B( 17-C , 23-O ) :   0.8980 B( 18-C , 19-C ) :   0.9406
B( 18-C , 24-H ) :   0.9426 B( 18-C , 25-H ) :   0.9416 B( 19-C , 20-O ) :   0.8531
B( 19-C , 26-H ) :   0.9289 B( 19-C , 27-H ) :   0.9368 B( 23-O , 28-H ) :   0.7987

FINAL SINGLE POINT ENERGY      -652.849891047600

DIPOLE MOMENT
-------------
                                X             Y             Z
Electronic contribution:     -4.46071      -4.95153      -1.23507
Nuclear contribution   :      5.49095       6.46976       1.73941
                        -----------------------------------------
Total Dipole Moment    :      1.03025       1.51823       0.50434
                        -----------------------------------------
Magnitude (a.u.)       :      1.90284
Magnitude (Debye)      :      4.83664

Rotational constants in cm-1:     0.045209     0.015770     0.014907
Rotational constants in MHz :  1355.335525   472.779452   446.897218

                             ****ORCA TERMINATED NORMALLY****
TOTAL RUN TIME: 0 days 1 hours 52 minutes 19 seconds 396 msec
