                         Program Version 4.2.0 -  RELEASE  -
|  1> # Test redundant internal optimization
|  2> #
|  3> ! RKS B3LYP  Opt TightSCF SmallPrint
|  4>
|  5> %basis
|  6>         Basis "6-31G"
|  7> end
|  8>
|  9> %geom
| 10> Constraints
| 11> { D 4  0  15  12  315.0   C } # D for Dihedral angle
| 12> { D 0  15  12  16  315.0   C } # D for Dihedral angle
| 13> { D 0  4  3  2   C } # D for Dihedral angle
| 14> { D 4  3  2  1   C } # D for Dihedral angle
| 15> { D 3  2  1  0   C } # D for Dihedral angle
| 16> { D 2  1  0  4   C } # D for Dihedral angle
| 17> { D 1  0  4  3   C } # D for Dihedral angle
| 18> { D 16  20  19  18   C } # D for Dihedral angle
| 19> { D 20  19  18  17   C } # D for Dihedral angle
| 20> { D 19  18  17  16   C } # D for Dihedral angle
| 21> { D 18  17  16  20   C } # D for Dihedral angle
| 22> { D 17  16  20  19   C } # D for Dihedral angle
| 23> { D 15  12  16  20   C } # D for Dihedral angle
| 24> end
| 25> end
| 26>
| 27>
| 28> #%pal
| 29> #nprocs 8
| 30> #end
| 31>
| 32> * xyz 0 1
| 33> C  -21.048   26.222   46.251
| 34> C  -20.361   27.558   45.944
| 35> C  -20.329   28.222   47.341
| 36> C  -20.110   27.022   48.296
| 37> O  -20.473   25.807   47.535
| 38> H  -20.833   25.428   45.533
| 39> H  -19.344   27.382   45.576
| 40> H  -20.898   28.157   45.201
| 41> H  -19.543   28.978   47.434
| 42> H  -21.289   28.710   47.548
| 43> H  -20.733   27.082   49.195
| 44> H  -19.064   26.913   48.597
| 45> C  -23.319   25.255   47.135
| 46> H  -23.138   25.363   48.212
| 47> H  -24.401   25.311   46.961
| 48> O  -22.586   26.394   46.375
| 49> C  -22.844   23.840   46.700
| 50> C  -23.667   22.743   47.383
| 51> C  -24.957   22.740   46.530
| 52> C  -24.436   23.052   45.105
| 53> O  -23.088   23.636   45.268
| 54> H  -21.766   23.761   46.856
| 55> H  -23.149   21.780   47.305
| 56> O  -23.939   23.030   48.886
| 57> H  -25.497   21.789   46.578
| 58> H  -25.637   23.529   46.874
| 59> H  -25.074   23.767   44.572
| 60> H  -24.326   22.152   44.494
| 61> H  -24.458   23.989   48.990
| 62> *
| 63>
| 64>                          ****END OF INPUT****
 Total Charge           Charge          ....    0
 Multiplicity           Mult            ....    1
 Number of Electrons    NEL             ....  102
FINAL SINGLE POINT ENERGY      -652.831383905446
FINAL SINGLE POINT ENERGY      -652.855348278991
FINAL SINGLE POINT ENERGY      -652.860141036254
FINAL SINGLE POINT ENERGY      -652.861016742233
FINAL SINGLE POINT ENERGY      -652.861174536295
FINAL SINGLE POINT ENERGY      -652.861203086486
FINAL SINGLE POINT ENERGY      -652.861206997075
                    ***********************HURRAY********************

CARTESIAN COORDINATES (ANGSTROEM)
---------------------------------
  C    -21.040521   26.187161   46.245955
  C    -20.439469   27.564191   45.962069
  C    -20.400777   28.187597   47.374971
  C    -20.087592   26.979741   48.287177
  O    -20.412865   25.769876   47.484999
  H    -20.817616   25.408445   45.512813
  H    -19.430516   27.438720   45.553373
  H    -21.043709   28.135667   45.254574
  H    -19.651078   28.979699   47.466749
  H    -21.381201   28.608808   47.615477
  H    -20.682153   26.966413   49.204527
  H    -19.027127   26.905652   48.545443
  C    -23.209181   25.318043   47.077997
  H    -23.053204   25.435791   48.158828
  H    -24.254021   25.535544   46.836578
  O    -22.469325   26.356431   46.370637
  C    -22.835122   23.881890   46.700888
  C    -23.691728   22.827239   47.424817
  C    -24.978165   22.794671   46.541913
  C    -24.416321   23.026128   45.120982
  O    -23.058348   23.603068   45.284353
  H    -21.771015   23.725078   46.887429
  H    -23.181265   21.862489   47.386215
  O    -23.924452   23.055488   48.834647
  H    -25.520076   21.850064   46.637191
  H    -25.653544   23.605417   46.845951
  H    -25.026250   23.714805   44.527508
  H    -24.300999   22.090404   44.565515
  H    -24.549361   23.797481   48.965423

 Multiplicity           Mult            ....    1
 Number of Electrons    NEL             ....  102
 Basis Dimension        Dim             ....  149

ORBITAL ENERGIES
----------------

  NO   OCC          E(Eh)            E(eV)
   0   2.0000     -19.147867      -521.0399
   1   2.0000     -19.139984      -520.8254
   2   2.0000     -19.136656      -520.7349
   3   2.0000     -19.136452      -520.7293
   4   2.0000     -10.270488      -279.4742
   5   2.0000     -10.243406      -278.7372
   6   2.0000     -10.229732      -278.3652
   7   2.0000     -10.225822      -278.2588
   8   2.0000     -10.225692      -278.2552
   9   2.0000     -10.224178      -278.2140
  10   2.0000     -10.194231      -277.3991
  11   2.0000     -10.182605      -277.0828
  12   2.0000     -10.180465      -277.0245
  13   2.0000      -1.050341       -28.5812
  14   2.0000      -1.031538       -28.0696
  15   2.0000      -1.013972       -27.5916
  16   2.0000      -0.987254       -26.8645
  17   2.0000      -0.786504       -21.4019
  18   2.0000      -0.779774       -21.2187
  19   2.0000      -0.761154       -20.7121
  20   2.0000      -0.730878       -19.8882
  21   2.0000      -0.676407       -18.4060
  22   2.0000      -0.610108       -16.6019
  23   2.0000      -0.600441       -16.3388
  24   2.0000      -0.595610       -16.2074
  25   2.0000      -0.558548       -15.1989
  26   2.0000      -0.527791       -14.3619
  27   2.0000      -0.508193       -13.8286
  28   2.0000      -0.497199       -13.5295
  29   2.0000      -0.485050       -13.1989
  30   2.0000      -0.466089       -12.6829
  31   2.0000      -0.455067       -12.3830
  32   2.0000      -0.438021       -11.9192
  33   2.0000      -0.431820       -11.7504
  34   2.0000      -0.425774       -11.5859
  35   2.0000      -0.413889       -11.2625
  36   2.0000      -0.402172       -10.9436
  37   2.0000      -0.399470       -10.8701
  38   2.0000      -0.379362       -10.3230
  39   2.0000      -0.366339        -9.9686
  40   2.0000      -0.355458        -9.6725
  41   2.0000      -0.353409        -9.6168
  42   2.0000      -0.343857        -9.3568
  43   2.0000      -0.329348        -8.9620
  44   2.0000      -0.325841        -8.8666
  45   2.0000      -0.313003        -8.5172
  46   2.0000      -0.295561        -8.0426
  47   2.0000      -0.269805        -7.3418
  48   2.0000      -0.264810        -7.2059
  49   2.0000      -0.251167        -6.8346
  50   2.0000      -0.234148        -6.3715
  51   0.0000       0.053192         1.4474
  52   0.0000       0.078598         2.1388
  53   0.0000       0.090258         2.4561
  54   0.0000       0.093087         2.5330
  55   0.0000       0.105417         2.8685

MULLIKEN ATOMIC CHARGES
-----------------------
   0 C :    0.280956
   1 C :   -0.260231
   2 C :   -0.299808
   3 C :   -0.006264
   4 O :   -0.521118
   5 H :    0.168897
   6 H :    0.144412
   7 H :    0.160746
   8 H :    0.140791
   9 H :    0.158945
  10 H :    0.144021
  11 H :    0.144862
  12 C :    0.000379
  13 H :    0.138740
  14 H :    0.136766
  15 O :   -0.526130
  16 C :    0.056259
  17 C :    0.084186
  18 C :   -0.319169
  19 C :   -0.015932
  20 O :   -0.515471
  21 H :    0.190319
  22 H :    0.166502
  23 O :   -0.597026
  24 H :    0.156887
  25 H :    0.133016
  26 H :    0.147916
  27 H :    0.151166
  28 H :    0.355382
Sum of atomic charges:   -0.0000000

LOEWDIN ATOMIC CHARGES
----------------------
   0 C :    0.170626
   1 C :   -0.212155
   2 C :   -0.216910
   3 C :   -0.028788
   4 O :   -0.333318
   5 H :    0.106943
   6 H :    0.113679
   7 H :    0.126312
   8 H :    0.113304
   9 H :    0.117478
  10 H :    0.103041
  11 H :    0.103784
  12 C :   -0.050524
  13 H :    0.101345
  14 H :    0.105529
  15 O :   -0.321951
  16 C :    0.001609
  17 C :    0.038547
  18 C :   -0.241041
  19 C :   -0.030939
  20 O :   -0.323199
  21 H :    0.128482
  22 H :    0.119114
  23 O :   -0.405039
  24 H :    0.122321
  25 H :    0.103737
  26 H :    0.104277
  27 H :    0.106409
  28 H :    0.277327

  Mayer bond orders larger than 0.100000
B(  0-C ,  1-C ) :   0.9474 B(  0-C ,  4-O ) :   0.8817 B(  0-C ,  5-H ) :   0.9138
B(  0-C , 15-O ) :   0.8581 B(  1-C ,  2-C ) :   0.9534 B(  1-C ,  6-H ) :   0.9400
B(  1-C ,  7-H ) :   0.9361 B(  2-C ,  3-C ) :   0.9556 B(  2-C ,  8-H ) :   0.9453
B(  2-C ,  9-H ) :   0.9449 B(  3-C ,  4-O ) :   0.8339 B(  3-C , 10-H ) :   0.9355
B(  3-C , 11-H ) :   0.9408 B( 12-C , 13-H ) :   0.9035 B( 12-C , 14-H ) :   0.9382
B( 12-C , 15-O ) :   0.8507 B( 12-C , 16-C ) :   0.8938 B( 16-C , 17-C ) :   0.8683
B( 16-C , 20-O ) :   0.8508 B( 16-C , 21-H ) :   0.9129 B( 17-C , 18-C ) :   0.9217
B( 17-C , 22-H ) :   0.9341 B( 17-C , 23-O ) :   0.9017 B( 18-C , 19-C ) :   0.9397
B( 18-C , 24-H ) :   0.9423 B( 18-C , 25-H ) :   0.9411 B( 19-C , 20-O ) :   0.8479
B( 19-C , 26-H ) :   0.9310 B( 19-C , 27-H ) :   0.9373 B( 23-O , 28-H ) :   0.7978

FINAL SINGLE POINT ENERGY      -652.861207786771

DIPOLE MOMENT
-------------
                                X             Y             Z
Electronic contribution:      0.34059      -2.82107      -0.37524
Nuclear contribution   :     -0.95510       3.32139       0.46240
                        -----------------------------------------
Total Dipole Moment    :     -0.61451       0.50032       0.08717
                        -----------------------------------------
Magnitude (a.u.)       :      0.79721
Magnitude (Debye)      :      2.02634

Rotational constants in cm-1:     0.056226     0.014190     0.012563
Rotational constants in MHz :  1685.623425   425.408000   376.617917

                             ****ORCA TERMINATED NORMALLY****
TOTAL RUN TIME: 0 days 1 hours 7 minutes 40 seconds 325 msec
