                         Program Version 4.2.1 -  RELEASE  -
|  1> # Test redundant internal optimization
|  2> #
|  3> ! RKS B3LYP  Opt TightSCF SmallPrint
|  4>
|  5> %basis
|  6>         Basis "6-31G"
|  7> end
|  8>
|  9> %geom
| 10> Constraints
| 11> { D 4  0  19  14  60.0   C } # D for Dihedral angle
| 12> { D 0  19  14  12  105.0   C } # D for Dihedral angle
| 13> { D 0  4  3  2   C } # D for Dihedral angle
| 14> { D 4  3  2  1   C } # D for Dihedral angle
| 15> { D 3  2  1  0   C } # D for Dihedral angle
| 16> { D 2  1  0  4   C } # D for Dihedral angle
| 17> { D 1  0  4  3   C } # D for Dihedral angle
| 18> { D 14  15  16  17   C } # D for Dihedral angle
| 19> { D 15  16  17  12   C } # D for Dihedral angle
| 20> { D 16  17  12  14   C } # D for Dihedral angle
| 21> { D 17  12  14  15   C } # D for Dihedral angle
| 22> { D 12  14  15  16   C } # D for Dihedral angle
| 23> end
| 24> end
| 25>
| 26>
| 27> #%pal
| 28> #nprocs 8
| 29> #end
| 30>
| 31> * xyz 0 1
| 32> C  -21.048   26.222   46.251
| 33> C  -20.361   27.558   45.944
| 34> C  -20.329   28.222   47.341
| 35> C  -20.110   27.022   48.296
| 36> O  -20.473   25.807   47.535
| 37> H  -20.833   25.428   45.533
| 38> H  -19.344   27.382   45.576
| 39> H  -20.898   28.157   45.201
| 40> H  -19.543   28.978   47.434
| 41> H  -21.289   28.710   47.548
| 42> H  -20.733   27.082   49.195
| 43> H  -19.064   26.913   48.597
| 44> C  -23.360   28.633   46.618
| 45> H  -23.402   29.489   47.309
| 46> C  -22.882   27.363   47.331
| 47> C  -24.169   26.909   48.059
| 48> C  -25.292   27.304   47.068
| 49> O  -24.705   28.295   46.140
| 50> H  -22.770   28.910   45.742
| 51> O  -22.472   26.381   46.366
| 52> H  -22.047   27.543   48.017
| 53> H  -24.172   25.839   48.289
| 54> H  -24.279   27.455   49.005
| 55> H  -26.157   27.752   47.570
| 56> H  -25.633   26.458   46.463
| 57> *
| 58>
| 59>                          ****END OF INPUT****
 Total Charge           Charge          ....    0
 Multiplicity           Mult            ....    1
 Number of Electrons    NEL             ....   86
FINAL SINGLE POINT ENERGY      -538.391761128479
FINAL SINGLE POINT ENERGY      -538.423634161287
FINAL SINGLE POINT ENERGY      -538.426696714983
FINAL SINGLE POINT ENERGY      -538.427179573366
FINAL SINGLE POINT ENERGY      -538.427236637719
FINAL SINGLE POINT ENERGY      -538.427258299332
FINAL SINGLE POINT ENERGY      -538.427258914892
                    ***********************HURRAY********************

CARTESIAN COORDINATES (ANGSTROEM)
---------------------------------
  C    -21.105360   26.317174   46.410770
  C    -20.252597   27.499718   45.926887
  C    -19.917684   28.226952   47.262001
  C    -19.774742   27.048363   48.259352
  O    -20.441114   25.886054   47.623316
  H    -21.067262   25.465783   45.729661
  H    -19.341245   27.106328   45.464803
  H    -20.772661   28.127840   45.199819
  H    -18.997121   28.815105   47.195378
  H    -20.722226   28.909078   47.550895
  H    -20.242321   27.241544   49.230200
  H    -18.729772   26.767349   48.420378
  C    -23.607558   28.725867   46.756883
  H    -23.819242   29.530045   47.478700
  C    -23.096109   27.480154   47.480888
  C    -24.408523   26.865352   48.007070
  C    -25.428434   27.190488   46.891380
  O    -24.829571   28.282852   46.088552
  H    -22.933223   29.099541   45.983962
  O    -22.526466   26.514771   46.542624
  H    -22.398349   27.697276   48.293360
  H    -24.286038   25.794611   48.180117
  H    -24.688099   27.346537   48.951526
  H    -26.393736   27.525796   47.285554
  H    -25.585548   26.347424   46.213923

 Multiplicity           Mult            ....    1
 Number of Electrons    NEL             ....   86
 Basis Dimension        Dim             ....  127

ORBITAL ENERGIES
----------------

  NO   OCC          E(Eh)            E(eV)
   0   2.0000     -19.144573      -520.9503
   1   2.0000     -19.141605      -520.8696
   2   2.0000     -19.127664      -520.4902
   3   2.0000     -10.279142      -279.7097
   4   2.0000     -10.241492      -278.6852
   5   2.0000     -10.233377      -278.4643
   6   2.0000     -10.223832      -278.2046
   7   2.0000     -10.217501      -278.0323
   8   2.0000     -10.196743      -277.4675
   9   2.0000     -10.191661      -277.3292
  10   2.0000     -10.182450      -277.0786
  11   2.0000      -1.053675       -28.6719
  12   2.0000      -1.014540       -27.6070
  13   2.0000      -0.991292       -26.9744
  14   2.0000      -0.792057       -21.5530
  15   2.0000      -0.785530       -21.3753
  16   2.0000      -0.739984       -20.1360
  17   2.0000      -0.724896       -19.7254
  18   2.0000      -0.620950       -16.8969
  19   2.0000      -0.606956       -16.5161
  20   2.0000      -0.597089       -16.2476
  21   2.0000      -0.567448       -15.4411
  22   2.0000      -0.522921       -14.2294
  23   2.0000      -0.504834       -13.7372
  24   2.0000      -0.488072       -13.2811
  25   2.0000      -0.483037       -13.1441
  26   2.0000      -0.453502       -12.3404
  27   2.0000      -0.442501       -12.0411
  28   2.0000      -0.432649       -11.7730
  29   2.0000      -0.418780       -11.3956
  30   2.0000      -0.412817       -11.2333
  31   2.0000      -0.388314       -10.5666
  32   2.0000      -0.370467       -10.0809
  33   2.0000      -0.369932       -10.0664
  34   2.0000      -0.363298        -9.8859
  35   2.0000      -0.362317        -9.8591
  36   2.0000      -0.343297        -9.3416
  37   2.0000      -0.318502        -8.6669
  38   2.0000      -0.308331        -8.3901
  39   2.0000      -0.300706        -8.1826
  40   2.0000      -0.266221        -7.2442
  41   2.0000      -0.254059        -6.9133
  42   2.0000      -0.232480        -6.3261
  43   0.0000       0.065715         1.7882
  44   0.0000       0.086800         2.3619
  45   0.0000       0.093307         2.5390
  46   0.0000       0.103860         2.8262
  47   0.0000       0.112811         3.0697

MULLIKEN ATOMIC CHARGES
-----------------------
   0 C :    0.297989
   1 C :   -0.274859
   2 C :   -0.320546
   3 C :   -0.014356
   4 O :   -0.505499
   5 H :    0.166679
   6 H :    0.154711
   7 H :    0.155254
   8 H :    0.148306
   9 H :    0.148269
  10 H :    0.143369
  11 H :    0.149397
  12 C :    0.010614
  13 H :    0.119895
  14 C :    0.050285
  15 C :   -0.283130
  16 C :    0.000769
  17 O :   -0.521095
  18 H :    0.151903
  19 O :   -0.511798
  20 H :    0.136214
  21 H :    0.170008
  22 H :    0.136319
  23 H :    0.133166
  24 H :    0.158135
Sum of atomic charges:    0.0000000

LOEWDIN ATOMIC CHARGES
----------------------
   0 C :    0.175805
   1 C :   -0.229266
   2 C :   -0.225790
   3 C :   -0.035945
   4 O :   -0.322114
   5 H :    0.114333
   6 H :    0.121232
   7 H :    0.120296
   8 H :    0.117310
   9 H :    0.108180
  10 H :    0.099989
  11 H :    0.105845
  12 C :   -0.044479
  13 H :    0.089551
  14 C :    0.034027
  15 C :   -0.223834
  16 C :   -0.027506
  17 O :   -0.329853
  18 H :    0.112229
  19 O :   -0.312380
  20 H :    0.102239
  21 H :    0.131887
  22 H :    0.110037
  23 H :    0.097577
  24 H :    0.110629

  Mayer bond orders larger than 0.100000
B(  0-C ,  1-C ) :   0.9144 B(  0-C ,  4-O ) :   0.8974 B(  0-C ,  5-H ) :   0.9359
B(  0-C , 19-O ) :   0.9098 B(  1-C ,  2-C ) :   0.9543 B(  1-C ,  6-H ) :   0.9347
B(  1-C ,  7-H ) :   0.9338 B(  2-C ,  3-C ) :   0.9461 B(  2-C ,  8-H ) :   0.9449
B(  2-C ,  9-H ) :   0.9408 B(  3-C ,  4-O ) :   0.8461 B(  3-C , 10-H ) :   0.9312
B(  3-C , 11-H ) :   0.9382 B( 12-C , 13-H ) :   0.9102 B( 12-C , 14-C ) :   0.9166
B( 12-C , 17-O ) :   0.8766 B( 12-C , 18-H ) :   0.9314 B( 14-C , 15-C ) :   0.9535
B( 14-C , 19-O ) :   0.8253 B( 14-C , 20-H ) :   0.9122 B( 15-C , 16-C ) :   0.9488
B( 15-C , 21-H ) :   0.9362 B( 15-C , 22-H ) :   0.9416 B( 16-C , 17-O ) :   0.8505
B( 16-C , 23-H ) :   0.9339 B( 16-C , 24-H ) :   0.9355

FINAL SINGLE POINT ENERGY      -538.427257910414

DIPOLE MOMENT
-------------
                                X             Y             Z
Electronic contribution:     -1.49346      -3.00659      -1.96588
Nuclear contribution   :      2.27203       3.70166       2.70168
                        -----------------------------------------
Total Dipole Moment    :      0.77857       0.69508       0.73579
                        -----------------------------------------
Magnitude (a.u.)       :      1.27699
Magnitude (Debye)      :      3.24584

Rotational constants in cm-1:     0.078491     0.022448     0.021118
Rotational constants in MHz :  2353.090777   672.978635   633.110434

                             ****ORCA TERMINATED NORMALLY****
TOTAL RUN TIME: 0 days 0 hours 8 minutes 21 seconds 330 msec
