                         Program Version 4.2.1 -  RELEASE  -
|  1> # Test redundant internal optimization
|  2> #
|  3> ! RKS B3LYP  Opt TightSCF SmallPrint
|  4>
|  5> %basis
|  6>         Basis "6-31G"
|  7> end
|  8>
|  9> %geom
| 10> Constraints
| 11> { D 4  0  19  14  300.0   C } # D for Dihedral angle
| 12> { D 0  19  14  12  105.0   C } # D for Dihedral angle
| 13> { D 0  4  3  2   C } # D for Dihedral angle
| 14> { D 4  3  2  1   C } # D for Dihedral angle
| 15> { D 3  2  1  0   C } # D for Dihedral angle
| 16> { D 2  1  0  4   C } # D for Dihedral angle
| 17> { D 1  0  4  3   C } # D for Dihedral angle
| 18> { D 14  15  16  17   C } # D for Dihedral angle
| 19> { D 15  16  17  12   C } # D for Dihedral angle
| 20> { D 16  17  12  14   C } # D for Dihedral angle
| 21> { D 17  12  14  15   C } # D for Dihedral angle
| 22> { D 12  14  15  16   C } # D for Dihedral angle
| 23> end
| 24> end
| 25>
| 26>
| 27> #%pal
| 28> #nprocs 8
| 29> #end
| 30>
| 31> * xyz 0 1
| 32> C  -21.048   26.222   46.251
| 33> C  -20.361   27.558   45.944
| 34> C  -20.329   28.222   47.341
| 35> C  -20.110   27.022   48.296
| 36> O  -20.473   25.807   47.535
| 37> H  -20.833   25.428   45.533
| 38> H  -19.344   27.382   45.576
| 39> H  -20.898   28.157   45.201
| 40> H  -19.543   28.978   47.434
| 41> H  -21.289   28.710   47.548
| 42> H  -20.733   27.082   49.195
| 43> H  -19.064   26.913   48.597
| 44> C  -23.603   25.291   48.225
| 45> H  -23.874   24.304   48.633
| 46> C  -23.171   25.189   46.758
| 47> C  -24.535   25.093   46.035
| 48> C  -25.452   26.002   46.891
| 49> O  -24.776   26.172   48.196
| 50> H  -22.868   25.759   48.882
| 51> O  -22.472   26.381   46.366
| 52> H  -22.524   24.328   46.559
| 53> H  -24.486   25.415   44.990
| 54> H  -24.898   24.057   46.049
| 55> H  -26.443   25.565   47.055
| 56> H  -25.572   27.000   46.458
| 57> *
| 58>
| 59>                          ****END OF INPUT****
 Total Charge           Charge          ....    0
 Multiplicity           Mult            ....    1
 Number of Electrons    NEL             ....   86
FINAL SINGLE POINT ENERGY      -538.436513060777
FINAL SINGLE POINT ENERGY      -538.438567639579
FINAL SINGLE POINT ENERGY      -538.438921231487
FINAL SINGLE POINT ENERGY      -538.438948991780
FINAL SINGLE POINT ENERGY      -538.438957192444
                    ***********************HURRAY********************

CARTESIAN COORDINATES (ANGSTROEM)
---------------------------------
  C    -21.006366   26.180740   46.259821
  C    -20.421461   27.558032   45.944949
  C    -20.406056   28.219125   47.340973
  C    -20.085836   27.041433   48.288398
  O    -20.385921   25.805135   47.516026
  H    -20.758043   25.378081   45.556768
  H    -19.406081   27.435861   45.551387
  H    -21.025187   28.102875   45.216357
  H    -19.669080   29.024487   47.417955
  H    -21.395431   28.629951   47.561034
  H    -20.692426   27.047554   49.197580
  H    -19.027728   26.987679   48.560838
  C    -23.623001   25.254974   48.240877
  H    -23.948714   24.276689   48.626186
  C    -23.167879   25.133084   46.787327
  C    -24.514624   25.120364   46.039095
  C    -25.397060   26.077151   46.876216
  O    -24.738228   26.200674   48.194605
  H    -22.857152   25.669743   48.895829
  O    -22.434840   26.327409   46.365477
  H    -22.562121   24.237933   46.605323
  H    -24.393834   25.447611   45.004008
  H    -24.923685   24.103030   46.039419
  H    -26.414930   25.696692   47.016626
  H    -25.443317   27.080695   46.444925

 Multiplicity           Mult            ....    1
 Number of Electrons    NEL             ....   86
 Basis Dimension        Dim             ....  127

ORBITAL ENERGIES
----------------

  NO   OCC          E(Eh)            E(eV)
   0   2.0000     -19.142577      -520.8960
   1   2.0000     -19.141131      -520.8566
   2   2.0000     -19.124002      -520.3905
   3   2.0000     -10.278495      -279.6921
   4   2.0000     -10.236946      -278.5615
   5   2.0000     -10.224797      -278.2309
   6   2.0000     -10.216809      -278.0135
   7   2.0000     -10.215830      -277.9869
   8   2.0000     -10.184513      -277.1347
   9   2.0000     -10.183180      -277.0984
  10   2.0000     -10.182767      -277.0872
  11   2.0000      -1.055003       -28.7081
  12   2.0000      -1.010569       -27.4990
  13   2.0000      -0.988842       -26.9078
  14   2.0000      -0.791969       -21.5506
  15   2.0000      -0.774499       -21.0752
  16   2.0000      -0.735982       -20.0271
  17   2.0000      -0.718772       -19.5588
  18   2.0000      -0.607398       -16.5282
  19   2.0000      -0.597734       -16.2652
  20   2.0000      -0.592505       -16.1229
  21   2.0000      -0.574576       -15.6350
  22   2.0000      -0.517702       -14.0874
  23   2.0000      -0.502828       -13.6826
  24   2.0000      -0.480645       -13.0790
  25   2.0000      -0.476554       -12.9677
  26   2.0000      -0.451789       -12.2938
  27   2.0000      -0.441682       -12.0188
  28   2.0000      -0.424791       -11.5591
  29   2.0000      -0.410627       -11.1737
  30   2.0000      -0.406944       -11.0735
  31   2.0000      -0.383920       -10.4470
  32   2.0000      -0.366619        -9.9762
  33   2.0000      -0.364480        -9.9180
  34   2.0000      -0.356385        -9.6977
  35   2.0000      -0.351325        -9.5600
  36   2.0000      -0.340412        -9.2631
  37   2.0000      -0.328526        -8.9396
  38   2.0000      -0.301385        -8.2011
  39   2.0000      -0.298364        -8.1189
  40   2.0000      -0.267375        -7.2756
  41   2.0000      -0.252708        -6.8765
  42   2.0000      -0.230043        -6.2598
  43   0.0000       0.081423         2.2156
  44   0.0000       0.092094         2.5060
  45   0.0000       0.101438         2.7603
  46   0.0000       0.116408         3.1676
  47   0.0000       0.118729         3.2308

MULLIKEN ATOMIC CHARGES
-----------------------
   0 C :    0.282842
   1 C :   -0.262382
   2 C :   -0.299325
   3 C :   -0.008932
   4 O :   -0.517385
   5 H :    0.143046
   6 H :    0.144256
   7 H :    0.158332
   8 H :    0.140808
   9 H :    0.170304
  10 H :    0.148285
  11 H :    0.143575
  12 C :    0.007441
  13 H :    0.120543
  14 C :    0.068049
  15 C :   -0.287910
  16 C :    0.003657
  17 O :   -0.522146
  18 H :    0.167063
  19 O :   -0.515505
  20 H :    0.135646
  21 H :    0.156127
  22 H :    0.139193
  23 H :    0.133382
  24 H :    0.151037
Sum of atomic charges:   -0.0000000

LOEWDIN ATOMIC CHARGES
----------------------
   0 C :    0.171596
   1 C :   -0.214281
   2 C :   -0.216098
   3 C :   -0.029331
   4 O :   -0.335240
   5 H :    0.094397
   6 H :    0.113848
   7 H :    0.125047
   8 H :    0.113533
   9 H :    0.123132
  10 H :    0.104345
  11 H :    0.103126
  12 C :   -0.039655
  13 H :    0.090233
  14 C :    0.039396
  15 C :   -0.226985
  16 C :   -0.027853
  17 O :   -0.332121
  18 H :    0.120517
  19 O :   -0.321542
  20 H :    0.104052
  21 H :    0.124655
  22 H :    0.111260
  23 H :    0.097077
  24 H :    0.106890

  Mayer bond orders larger than 0.100000
B(  0-C ,  1-C ) :   0.9507 B(  0-C ,  4-O ) :   0.8935 B(  0-C ,  5-H ) :   0.9190
B(  0-C , 19-O ) :   0.8736 B(  1-C ,  2-C ) :   0.9560 B(  1-C ,  6-H ) :   0.9398
B(  1-C ,  7-H ) :   0.9360 B(  2-C ,  3-C ) :   0.9559 B(  2-C ,  8-H ) :   0.9450
B(  2-C ,  9-H ) :   0.9423 B(  3-C ,  4-O ) :   0.8355 B(  3-C , 10-H ) :   0.9324
B(  3-C , 11-H ) :   0.9408 B( 12-C , 13-H ) :   0.9123 B( 12-C , 14-C ) :   0.9225
B( 12-C , 17-O ) :   0.8687 B( 12-C , 18-H ) :   0.9285 B( 14-C , 15-C ) :   0.9539
B( 14-C , 19-O ) :   0.8164 B( 14-C , 20-H ) :   0.9188 B( 15-C , 16-C ) :   0.9467
B( 15-C , 21-H ) :   0.9383 B( 15-C , 22-H ) :   0.9415 B( 16-C , 17-O ) :   0.8565
B( 16-C , 23-H ) :   0.9331 B( 16-C , 24-H ) :   0.9365

FINAL SINGLE POINT ENERGY      -538.438957682724

DIPOLE MOMENT
-------------
                                X             Y             Z
Electronic contribution:     -0.39779      -1.46469       0.77666
Nuclear contribution   :      0.81958       1.34693      -1.45705
                        -----------------------------------------
Total Dipole Moment    :      0.42179      -0.11776      -0.68040
                        -----------------------------------------
Magnitude (a.u.)       :      0.80914
Magnitude (Debye)      :      2.05667

Rotational constants in cm-1:     0.074915     0.022415     0.021370
Rotational constants in MHz :  2245.899969   671.998082   640.652916

                             ****ORCA TERMINATED NORMALLY****
TOTAL RUN TIME: 0 days 0 hours 5 minutes 56 seconds 787 msec
