                         Program Version 4.2.0 -  RELEASE  -
|  1> # Test redundant internal optimization
|  2> #
|  3> ! RKS B3LYP  Opt TightSCF SmallPrint
|  4>
|  5> %basis
|  6>         Basis "6-31G"
|  7> end
|  8>
|  9> %geom
| 10> Constraints
| 11> { D 4  0  15  12  270.0   C } # D for Dihedral angle
| 12> { D 0  15  12  16  105.0   C } # D for Dihedral angle
| 13> { D 0  4  3  2   C } # D for Dihedral angle
| 14> { D 4  3  2  1   C } # D for Dihedral angle
| 15> { D 3  2  1  0   C } # D for Dihedral angle
| 16> { D 2  1  0  4   C } # D for Dihedral angle
| 17> { D 1  0  4  3   C } # D for Dihedral angle
| 18> { D 16  20  19  18   C } # D for Dihedral angle
| 19> { D 20  19  18  17   C } # D for Dihedral angle
| 20> { D 19  18  17  16   C } # D for Dihedral angle
| 21> { D 18  17  16  20   C } # D for Dihedral angle
| 22> { D 17  16  20  19   C } # D for Dihedral angle
| 23> { D 15  12  16  20   C } # D for Dihedral angle
| 24> end
| 25> end
| 26>
| 27>
| 28> #%pal
| 29> #nprocs 8
| 30> #end
| 31>
| 32> * xyz 0 1
| 33> C  -21.048   26.222   46.251
| 34> C  -20.361   27.558   45.944
| 35> C  -20.329   28.222   47.341
| 36> C  -20.110   27.022   48.296
| 37> O  -20.473   25.807   47.535
| 38> H  -20.833   25.428   45.533
| 39> H  -19.344   27.382   45.576
| 40> H  -20.898   28.157   45.201
| 41> H  -19.543   28.978   47.434
| 42> H  -21.289   28.710   47.548
| 43> H  -20.733   27.082   49.195
| 44> H  -19.064   26.913   48.597
| 45> C  -23.420   25.119   46.072
| 46> H  -24.261   25.383   45.420
| 47> H  -22.805   24.372   45.553
| 48> O  -22.586   26.394   46.375
| 49> C  -23.987   24.453   47.357
| 50> C  -22.871   24.137   48.359
| 51> C  -22.624   25.523   49.001
| 52> C  -24.039   26.153   49.033
| 53> O  -24.863   25.386   48.073
| 54> H  -24.598   23.594   47.074
| 55> O  -23.381   23.125   49.421
| 56> H  -21.974   23.721   47.888
| 57> H  -22.175   25.456   49.997
| 58> H  -21.952   26.116   48.370
| 59> H  -24.035   27.209   48.740
| 60> H  -24.516   26.060   50.013
| 61> H  -24.280   23.521   49.906
| 62> *
| 63>
| 64>                          ****END OF INPUT****
 Total Charge           Charge          ....    0
 Multiplicity           Mult            ....    1
 Number of Electrons    NEL             ....  102
FINAL SINGLE POINT ENERGY      -652.812668122339
FINAL SINGLE POINT ENERGY      -652.843745509379
FINAL SINGLE POINT ENERGY      -652.859078592598
FINAL SINGLE POINT ENERGY      -652.862562817751
FINAL SINGLE POINT ENERGY      -652.863138317477
FINAL SINGLE POINT ENERGY      -652.863194807829
FINAL SINGLE POINT ENERGY      -652.863205064439
                    ***********************HURRAY********************

CARTESIAN COORDINATES (ANGSTROEM)
---------------------------------
  C    -20.965850   26.243330   46.230541
  C    -20.355680   27.569880   45.771158
  C    -20.276022   28.358691   47.100841
  C    -19.954939   27.262758   48.140824
  O    -20.313595   25.969522   47.494418
  H    -20.730995   25.385217   45.590373
  H    -19.355131   27.384297   45.365113
  H    -20.967857   28.059710   45.012153
  H    -19.515576   29.145369   47.081810
  H    -21.245358   28.820209   47.312485
  H    -20.526539   27.367502   49.066675
  H    -18.890031   27.200308   48.381930
  C    -23.228405   25.207601   46.146648
  H    -24.038491   25.530255   45.485496
  H    -22.649398   24.426819   45.627787
  O    -22.397944   26.401003   46.307385
  C    -23.893402   24.583434   47.378182
  C    -23.036518   24.012350   48.514927
  C    -22.792957   25.267940   49.388015
  C    -24.119426   26.055284   49.246598
  O    -24.800927   25.517378   48.046368
  H    -24.524249   23.779181   46.974052
  O    -23.766514   22.967764   49.220825
  H    -22.110586   23.544034   48.181978
  H    -22.568295   24.987960   50.420716
  H    -21.954149   25.816067   48.966918
  H    -23.957937   27.128245   49.104883
  H    -24.796116   25.907303   50.095036
  H    -24.659111   23.303590   49.448866

 Multiplicity           Mult            ....    1
 Number of Electrons    NEL             ....  102
 Basis Dimension        Dim             ....  149

ORBITAL ENERGIES
----------------

  NO   OCC          E(Eh)            E(eV)
   0   2.0000     -19.152015      -521.1528
   1   2.0000     -19.151962      -521.1514
   2   2.0000     -19.135098      -520.6925
   3   2.0000     -19.130638      -520.5711
   4   2.0000     -10.286112      -279.8993
   5   2.0000     -10.234781      -278.5026
   6   2.0000     -10.233391      -278.4647
   7   2.0000     -10.230761      -278.3932
   8   2.0000     -10.230567      -278.3879
   9   2.0000     -10.220476      -278.1133
  10   2.0000     -10.191366      -277.3212
  11   2.0000     -10.190213      -277.2898
  12   2.0000     -10.169842      -276.7355
  13   2.0000      -1.058856       -28.8129
  14   2.0000      -1.029000       -28.0005
  15   2.0000      -1.004279       -27.3278
  16   2.0000      -0.996215       -27.1084
  17   2.0000      -0.793925       -21.6038
  18   2.0000      -0.773095       -21.0370
  19   2.0000      -0.762327       -20.7440
  20   2.0000      -0.736806       -20.0495
  21   2.0000      -0.675028       -18.3684
  22   2.0000      -0.605556       -16.4780
  23   2.0000      -0.601622       -16.3710
  24   2.0000      -0.592534       -16.1237
  25   2.0000      -0.576914       -15.6986
  26   2.0000      -0.524619       -14.2756
  27   2.0000      -0.503144       -13.6913
  28   2.0000      -0.501289       -13.6408
  29   2.0000      -0.489671       -13.3246
  30   2.0000      -0.472641       -12.8612
  31   2.0000      -0.453431       -12.3385
  32   2.0000      -0.444509       -12.0957
  33   2.0000      -0.441612       -12.0169
  34   2.0000      -0.429166       -11.6782
  35   2.0000      -0.408883       -11.1263
  36   2.0000      -0.405001       -11.0206
  37   2.0000      -0.384087       -10.4515
  38   2.0000      -0.370207       -10.0738
  39   2.0000      -0.366123        -9.9627
  40   2.0000      -0.362530        -9.8649
  41   2.0000      -0.354432        -9.6446
  42   2.0000      -0.346829        -9.4377
  43   2.0000      -0.333874        -9.0852
  44   2.0000      -0.322260        -8.7691
  45   2.0000      -0.308934        -8.4065
  46   2.0000      -0.299878        -8.1601
  47   2.0000      -0.278972        -7.5912
  48   2.0000      -0.264809        -7.2058
  49   2.0000      -0.261340        -7.1114
  50   2.0000      -0.235086        -6.3970
  51   0.0000       0.065673         1.7871
  52   0.0000       0.082554         2.2464
  53   0.0000       0.086577         2.3559
  54   0.0000       0.104899         2.8545
  55   0.0000       0.106773         2.9054

MULLIKEN ATOMIC CHARGES
-----------------------
   0 C :    0.288410
   1 C :   -0.259032
   2 C :   -0.299394
   3 C :   -0.011089
   4 O :   -0.508657
   5 H :    0.142594
   6 H :    0.147245
   7 H :    0.160608
   8 H :    0.145190
   9 H :    0.164774
  10 H :    0.139840
  11 H :    0.149679
  12 C :   -0.012441
  13 H :    0.165389
  14 H :    0.123040
  15 O :   -0.514795
  16 C :    0.075977
  17 C :    0.074551
  18 C :   -0.313594
  19 C :   -0.027921
  20 O :   -0.525740
  21 H :    0.152363
  22 O :   -0.603297
  23 H :    0.158585
  24 H :    0.145574
  25 H :    0.195584
  26 H :    0.149210
  27 H :    0.135991
  28 H :    0.361357
Sum of atomic charges:   -0.0000000

LOEWDIN ATOMIC CHARGES
----------------------
   0 C :    0.170982
   1 C :   -0.214953
   2 C :   -0.215908
   3 C :   -0.030663
   4 O :   -0.327585
   5 H :    0.095163
   6 H :    0.115241
   7 H :    0.125917
   8 H :    0.115896
   9 H :    0.120196
  10 H :    0.101013
  11 H :    0.106194
  12 C :   -0.037870
  13 H :    0.120007
  14 H :    0.096811
  15 O :   -0.323326
  16 C :    0.006015
  17 C :    0.038407
  18 C :   -0.247724
  19 C :   -0.036397
  20 O :   -0.331864
  21 H :    0.115963
  22 O :   -0.418201
  23 H :    0.119758
  24 H :    0.118879
  25 H :    0.136020
  26 H :    0.105405
  27 H :    0.095807
  28 H :    0.280819

  Mayer bond orders larger than 0.100000
B(  0-C ,  1-C ) :   0.9431 B(  0-C ,  4-O ) :   0.8950 B(  0-C ,  5-H ) :   0.9180
B(  0-C , 15-O ) :   0.8727 B(  1-C ,  2-C ) :   0.9586 B(  1-C ,  6-H ) :   0.9394
B(  1-C ,  7-H ) :   0.9368 B(  2-C ,  3-C ) :   0.9550 B(  2-C ,  8-H ) :   0.9446
B(  2-C ,  9-H ) :   0.9438 B(  3-C ,  4-O ) :   0.8306 B(  3-C , 10-H ) :   0.9293
B(  3-C , 11-H ) :   0.9411 B( 12-C , 13-H ) :   0.9308 B( 12-C , 14-H ) :   0.9106
B( 12-C , 15-O ) :   0.8606 B( 12-C , 16-C ) :   0.8950 B( 16-C , 17-C ) :   0.9073
B( 16-C , 20-O ) :   0.8692 B( 16-C , 21-H ) :   0.9131 B( 17-C , 18-C ) :   0.9243
B( 17-C , 22-O ) :   0.8874 B( 17-C , 23-H ) :   0.9331 B( 18-C , 19-C ) :   0.9440
B( 18-C , 24-H ) :   0.9407 B( 18-C , 25-H ) :   0.8914 B( 19-C , 20-O ) :   0.8422
B( 19-C , 26-H ) :   0.9339 B( 19-C , 27-H ) :   0.9370 B( 22-O , 28-H ) :   0.7969

FINAL SINGLE POINT ENERGY      -652.863203844324

DIPOLE MOMENT
-------------
                                X             Y             Z
Electronic contribution:     -3.56337      -4.07359      -0.43510
Nuclear contribution   :      4.33102       4.97299       0.05940
                        -----------------------------------------
Total Dipole Moment    :      0.76764       0.89940      -0.37569
                        -----------------------------------------
Magnitude (a.u.)       :      1.24070
Magnitude (Debye)      :      3.15362

Rotational constants in cm-1:     0.048574     0.016576     0.015516
Rotational constants in MHz :  1456.217500   496.941734   465.163249

                             ****ORCA TERMINATED NORMALLY****
TOTAL RUN TIME: 0 days 0 hours 23 minutes 20 seconds 40 msec
