                         Program Version 4.2.0 -  RELEASE  -
|  1> # Test redundant internal optimization
|  2> #
|  3> ! RKS B3LYP  Opt TightSCF SmallPrint
|  4>
|  5> %basis
|  6>         Basis "6-31G"
|  7> end
|  8>
|  9> %geom
| 10> Constraints
| 11> { D 4  0  15  12  105.0   C } # D for Dihedral angle
| 12> { D 0  15  12  16  60.0   C } # D for Dihedral angle
| 13> { D 0  4  3  2   C } # D for Dihedral angle
| 14> { D 4  3  2  1   C } # D for Dihedral angle
| 15> { D 3  2  1  0   C } # D for Dihedral angle
| 16> { D 2  1  0  4   C } # D for Dihedral angle
| 17> { D 1  0  4  3   C } # D for Dihedral angle
| 18> { D 16  20  19  18   C } # D for Dihedral angle
| 19> { D 20  19  18  17   C } # D for Dihedral angle
| 20> { D 19  18  17  16   C } # D for Dihedral angle
| 21> { D 18  17  16  20   C } # D for Dihedral angle
| 22> { D 17  16  20  19   C } # D for Dihedral angle
| 23> { D 15  12  16  20   C } # D for Dihedral angle
| 24> end
| 25> end
| 26>
| 27>
| 28> #%pal
| 29> #nprocs 8
| 30> #end
| 31>
| 32> * xyz 0 1
| 33> C  -21.048   26.222   46.251
| 34> C  -20.361   27.558   45.944
| 35> C  -20.329   28.222   47.341
| 36> C  -20.110   27.022   48.296
| 37> O  -20.473   25.807   47.535
| 38> H  -20.833   25.428   45.533
| 39> H  -19.344   27.382   45.576
| 40> H  -20.898   28.157   45.201
| 41> H  -19.543   28.978   47.434
| 42> H  -21.289   28.710   47.548
| 43> H  -20.733   27.082   49.195
| 44> H  -19.064   26.913   48.597
| 45> C  -23.085   27.864   46.420
| 46> H  -24.177   27.873   46.517
| 47> H  -22.659   28.388   47.286
| 48> O  -22.586   26.394   46.375
| 49> C  -22.700   28.668   45.147
| 50> C  -23.394   28.104   43.902
| 51> C  -24.815   28.700   44.038
| 52> C  -24.554   30.094   44.662
| 53> O  -23.195   30.046   45.243
| 54> H  -21.613   28.723   45.073
| 55> H  -22.903   28.477   42.996
| 56> O  -23.394   26.551   43.854
| 57> H  -25.341   28.764   43.080
| 58> H  -25.420   28.082   44.711
| 59> H  -25.272   30.341   45.451
| 60> H  -24.558   30.893   43.916
| 61> H  -23.881   26.156   44.752
| 62> *
| 63>
| 64>                          ****END OF INPUT****
 Total Charge           Charge          ....    0
 Multiplicity           Mult            ....    1
 Number of Electrons    NEL             ....  102
FINAL SINGLE POINT ENERGY      -652.746817901623
FINAL SINGLE POINT ENERGY      -652.821268139545
FINAL SINGLE POINT ENERGY      -652.844020089479
FINAL SINGLE POINT ENERGY      -652.849811614963
FINAL SINGLE POINT ENERGY      -652.850933958082
FINAL SINGLE POINT ENERGY      -652.851213807571
FINAL SINGLE POINT ENERGY      -652.851287686108
FINAL SINGLE POINT ENERGY      -652.851301123656
                    ***********************HURRAY********************

CARTESIAN COORDINATES (ANGSTROEM)
---------------------------------
  C    -21.169371   26.285647   46.417640
  C    -20.113348   27.309972   45.991837
  C    -19.880272   28.102930   47.307713
  C    -20.034697   27.007857   48.389859
  O    -20.749092   25.886225   47.735308
  H    -21.170856   25.378278   45.814044
  H    -19.209505   26.747099   45.731228
  H    -20.382722   27.914892   45.128974
  H    -18.895059   28.577178   47.337095
  H    -20.631064   28.892179   47.427932
  H    -20.612229   27.337927   49.257760
  H    -19.071453   26.615775   48.728038
  C    -23.199013   27.987486   46.400530
  H    -24.267442   27.766750   46.465884
  H    -22.927369   28.566066   47.292355
  O    -22.586296   26.652331   46.444006
  C    -22.902826   28.847798   45.163279
  C    -23.445382   28.266872   43.846637
  C    -24.951012   28.643146   43.935387
  C    -24.934735   30.012093   44.646489
  O    -23.597483   30.127897   45.309313
  H    -21.846983   29.105540   45.103007
  H    -22.982198   28.775719   42.996941
  O    -23.181022   26.859552   43.655473
  H    -25.416220   28.685515   42.947185
  H    -25.480747   27.882581   44.519504
  H    -25.713746   30.116806   45.407596
  H    -25.007195   30.850361   43.947909
  H    -23.212662   26.396530   44.525076

 Multiplicity           Mult            ....    1
 Number of Electrons    NEL             ....  102
 Basis Dimension        Dim             ....  149

ORBITAL ENERGIES
----------------

  NO   OCC          E(Eh)            E(eV)
   0   2.0000     -19.154301      -521.2150
   1   2.0000     -19.147253      -521.0232
   2   2.0000     -19.144265      -520.9419
   3   2.0000     -19.129923      -520.5517
   4   2.0000     -10.288780      -279.9719
   5   2.0000     -10.241286      -278.6796
   6   2.0000     -10.240035      -278.6455
   7   2.0000     -10.239047      -278.6186
   8   2.0000     -10.233185      -278.4591
   9   2.0000     -10.231910      -278.4244
  10   2.0000     -10.198550      -277.5166
  11   2.0000     -10.198281      -277.5093
  12   2.0000     -10.187716      -277.2219
  13   2.0000      -1.055965       -28.7343
  14   2.0000      -1.031480       -28.0680
  15   2.0000      -1.008413       -27.4403
  16   2.0000      -0.996748       -27.1229
  17   2.0000      -0.795544       -21.6478
  18   2.0000      -0.780986       -21.2517
  19   2.0000      -0.773979       -21.0610
  20   2.0000      -0.741959       -20.1897
  21   2.0000      -0.686869       -18.6907
  22   2.0000      -0.610465       -16.6116
  23   2.0000      -0.608202       -16.5500
  24   2.0000      -0.604207       -16.4413
  25   2.0000      -0.576201       -15.6792
  26   2.0000      -0.537883       -14.6365
  27   2.0000      -0.511469       -13.9178
  28   2.0000      -0.505612       -13.7584
  29   2.0000      -0.490784       -13.3549
  30   2.0000      -0.473910       -12.8957
  31   2.0000      -0.461079       -12.5466
  32   2.0000      -0.447117       -12.1667
  33   2.0000      -0.440626       -11.9901
  34   2.0000      -0.428301       -11.6546
  35   2.0000      -0.419870       -11.4253
  36   2.0000      -0.413177       -11.2431
  37   2.0000      -0.402057       -10.9405
  38   2.0000      -0.390804       -10.6343
  39   2.0000      -0.376471       -10.2443
  40   2.0000      -0.366821        -9.9817
  41   2.0000      -0.356804        -9.7091
  42   2.0000      -0.354507        -9.6466
  43   2.0000      -0.340424        -9.2634
  44   2.0000      -0.320073        -8.7096
  45   2.0000      -0.310381        -8.4459
  46   2.0000      -0.299451        -8.1485
  47   2.0000      -0.281323        -7.6552
  48   2.0000      -0.261453        -7.1145
  49   2.0000      -0.259672        -7.0660
  50   2.0000      -0.243225        -6.6185
  51   0.0000       0.052495         1.4285
  52   0.0000       0.066475         1.8089
  53   0.0000       0.083371         2.2686
  54   0.0000       0.092280         2.5111
  55   0.0000       0.101505         2.7621

MULLIKEN ATOMIC CHARGES
-----------------------
   0 C :    0.313486
   1 C :   -0.297254
   2 C :   -0.316536
   3 C :   -0.007897
   4 O :   -0.494081
   5 H :    0.169471
   6 H :    0.161401
   7 H :    0.157678
   8 H :    0.149715
   9 H :    0.156373
  10 H :    0.150541
  11 H :    0.149031
  12 C :   -0.033002
  13 H :    0.165620
  14 H :    0.155499
  15 O :   -0.549841
  16 C :    0.042465
  17 C :    0.112431
  18 C :   -0.312657
  19 C :   -0.022385
  20 O :   -0.521855
  21 H :    0.160335
  22 H :    0.153290
  23 O :   -0.628605
  24 H :    0.156048
  25 H :    0.149348
  26 H :    0.146843
  27 H :    0.152080
  28 H :    0.382457
Sum of atomic charges:   -0.0000000

LOEWDIN ATOMIC CHARGES
----------------------
   0 C :    0.181549
   1 C :   -0.230845
   2 C :   -0.222322
   3 C :   -0.030523
   4 O :   -0.309904
   5 H :    0.114064
   6 H :    0.125993
   7 H :    0.119700
   8 H :    0.118827
   9 H :    0.112091
  10 H :    0.106499
  11 H :    0.105764
  12 C :   -0.049119
  13 H :    0.117537
  14 H :    0.107313
  15 O :   -0.339269
  16 C :   -0.000037
  17 C :    0.039870
  18 C :   -0.240073
  19 C :   -0.032749
  20 O :   -0.323053
  21 H :    0.111434
  22 H :    0.111081
  23 O :   -0.425985
  24 H :    0.123565
  25 H :    0.112828
  26 H :    0.104392
  27 H :    0.107691
  28 H :    0.283682

  Mayer bond orders larger than 0.100000
B(  0-C ,  1-C ) :   0.9282 B(  0-C ,  4-O ) :   0.9231 B(  0-C ,  5-H ) :   0.9319
B(  0-C , 15-O ) :   0.8380 B(  1-C ,  2-C ) :   0.9513 B(  1-C ,  6-H ) :   0.9298
B(  1-C ,  7-H ) :   0.9186 B(  2-C ,  3-C ) :   0.9469 B(  2-C ,  8-H ) :   0.9450
B(  2-C ,  9-H ) :   0.9393 B(  3-C ,  4-O ) :   0.8424 B(  3-C , 10-H ) :   0.9344
B(  3-C , 11-H ) :   0.9383 B( 12-C , 13-H ) :   0.9356 B( 12-C , 14-H ) :   0.9198
B( 12-C , 15-O ) :   0.8097 B( 12-C , 16-C ) :   0.8794 B( 16-C , 17-C ) :   0.9031
B( 16-C , 20-O ) :   0.8389 B( 16-C , 21-H ) :   0.9186 B( 17-C , 18-C ) :   0.9036
B( 17-C , 22-H ) :   0.9348 B( 17-C , 23-O ) :   0.9280 B( 18-C , 19-C ) :   0.9409
B( 18-C , 24-H ) :   0.9429 B( 18-C , 25-H ) :   0.9421 B( 19-C , 20-O ) :   0.8325
B( 19-C , 26-H ) :   0.9333 B( 19-C , 27-H ) :   0.9382 B( 23-O , 28-H ) :   0.7376

FINAL SINGLE POINT ENERGY      -652.851304570043

DIPOLE MOMENT
-------------
                                X             Y             Z
Electronic contribution:     -0.80401      -3.16595       0.05126
Nuclear contribution   :      1.06692       4.06630       0.02223
                        -----------------------------------------
Total Dipole Moment    :      0.26291       0.90035       0.07349
                        -----------------------------------------
Magnitude (a.u.)       :      0.94083
Magnitude (Debye)      :      2.39139

Rotational constants in cm-1:     0.054839     0.015088     0.013775
Rotational constants in MHz :  1644.029197   452.320829   412.949923

                             ****ORCA TERMINATED NORMALLY****
TOTAL RUN TIME: 0 days 0 hours 30 minutes 57 seconds 737 msec
