                         Program Version 4.2.0 -  RELEASE  -
|  1> # Test redundant internal optimization
|  2> #
|  3> ! RKS B3LYP  Opt TightSCF SmallPrint
|  4>
|  5> %basis
|  6>         Basis "6-31G"
|  7> end
|  8>
|  9> %geom
| 10> Constraints
| 11> { D 4  0  15  12  90.0   C } # D for Dihedral angle
| 12> { D 0  15  12  16  165.0   C } # D for Dihedral angle
| 13> { D 0  4  3  2   C } # D for Dihedral angle
| 14> { D 4  3  2  1   C } # D for Dihedral angle
| 15> { D 3  2  1  0   C } # D for Dihedral angle
| 16> { D 2  1  0  4   C } # D for Dihedral angle
| 17> { D 1  0  4  3   C } # D for Dihedral angle
| 18> { D 16  20  19  18   C } # D for Dihedral angle
| 19> { D 20  19  18  17   C } # D for Dihedral angle
| 20> { D 19  18  17  16   C } # D for Dihedral angle
| 21> { D 18  17  16  20   C } # D for Dihedral angle
| 22> { D 17  16  20  19   C } # D for Dihedral angle
| 23> { D 15  12  16  20   C } # D for Dihedral angle
| 24> end
| 25> end
| 26>
| 27>
| 28> #%pal
| 29> #nprocs 8
| 30> #end
| 31>
| 32> * xyz 0 1
| 33> C  -21.048   26.222   46.251
| 34> C  -20.361   27.558   45.944
| 35> C  -20.329   28.222   47.341
| 36> C  -20.110   27.022   48.296
| 37> O  -20.473   25.807   47.535
| 38> H  -20.833   25.428   45.533
| 39> H  -19.344   27.382   45.576
| 40> H  -20.898   28.157   45.201
| 41> H  -19.543   28.978   47.434
| 42> H  -21.289   28.710   47.548
| 43> H  -20.733   27.082   49.195
| 44> H  -19.064   26.913   48.597
| 45> C  -23.061   27.816   46.783
| 46> H  -22.860   27.972   47.850
| 47> H  -22.515   28.580   46.216
| 48> O  -22.586   26.394   46.375
| 49> C  -24.579   28.036   46.535
| 50> C  -24.988   29.481   46.839
| 51> C  -24.515   30.217   45.562
| 52> C  -24.764   29.174   44.444
| 53> O  -24.896   27.863   45.113
| 54> H  -25.145   27.281   47.084
| 55> H  -26.077   29.551   46.944
| 56> O  -24.335   30.041   48.132
| 57> H  -25.054   31.154   45.387
| 58> H  -23.447   30.454   45.638
| 59> H  -23.940   29.128   43.723
| 60> H  -25.698   29.356   43.904
| 61> H  -23.245   29.983   48.051
| 62> *
| 63>
| 64>                          ****END OF INPUT****
 Total Charge           Charge          ....    0
 Multiplicity           Mult            ....    1
 Number of Electrons    NEL             ....  102
FINAL SINGLE POINT ENERGY      -652.805959615346
FINAL SINGLE POINT ENERGY      -652.833206134327
FINAL SINGLE POINT ENERGY      -652.846748247395
FINAL SINGLE POINT ENERGY      -652.848973735046
FINAL SINGLE POINT ENERGY      -652.849392749395
FINAL SINGLE POINT ENERGY      -652.849483955494
FINAL SINGLE POINT ENERGY      -652.849492997195
FINAL SINGLE POINT ENERGY      -652.849493116114
                    ***********************HURRAY********************

CARTESIAN COORDINATES (ANGSTROEM)
---------------------------------
  C    -21.180169   26.338339   46.365025
  C    -20.198761   27.449970   45.967184
  C    -19.873113   28.104178   47.341818
  C    -19.893618   26.886870   48.303001
  O    -20.625124   25.813143   47.594854
  H    -21.188263   25.495444   45.673156
  H    -19.303951   26.984562   45.542302
  H    -20.606244   28.148289   45.230671
  H    -18.901167   28.607442   47.342116
  H    -20.628981   28.844022   47.618761
  H    -20.396249   27.098140   49.251894
  H    -18.889005   26.506840   48.510990
  C    -23.046941   27.981902   46.853648
  H    -22.951812   28.122021   47.939300
  H    -22.480593   28.769962   46.339293
  O    -22.578281   26.670615   46.453863
  C    -24.523293   28.060535   46.467322
  C    -25.180369   29.414061   46.783974
  C    -24.773177   30.266138   45.543569
  C    -24.796044   29.230673   44.398270
  O    -24.741164   27.889517   45.034179
  H    -25.041216   27.225557   46.946815
  H    -26.264552   29.288533   46.820759
  O    -24.836451   29.993632   48.065836
  H    -25.453066   31.105655   45.376432
  H    -23.764114   30.673455   45.696548
  H    -23.950599   29.335920   43.710092
  H    -25.724792   29.273038   43.821353
  H    -23.938889   30.383549   48.037978

 Multiplicity           Mult            ....    1
 Number of Electrons    NEL             ....  102
 Basis Dimension        Dim             ....  149

ORBITAL ENERGIES
----------------

  NO   OCC          E(Eh)            E(eV)
   0   2.0000     -19.153214      -521.1854
   1   2.0000     -19.140912      -520.8507
   2   2.0000     -19.137965      -520.7705
   3   2.0000     -19.137249      -520.7510
   4   2.0000     -10.276611      -279.6408
   5   2.0000     -10.247709      -278.8543
   6   2.0000     -10.233751      -278.4745
   7   2.0000     -10.232644      -278.4444
   8   2.0000     -10.230999      -278.3996
   9   2.0000     -10.228324      -278.3268
  10   2.0000     -10.199274      -277.5363
  11   2.0000     -10.196256      -277.4542
  12   2.0000     -10.194283      -277.4005
  13   2.0000      -1.050277       -28.5795
  14   2.0000      -1.035834       -28.1865
  15   2.0000      -1.017428       -27.6856
  16   2.0000      -0.994283       -27.0558
  17   2.0000      -0.790373       -21.5071
  18   2.0000      -0.785820       -21.3833
  19   2.0000      -0.773771       -21.0554
  20   2.0000      -0.733046       -19.9472
  21   2.0000      -0.686410       -18.6782
  22   2.0000      -0.614342       -16.7171
  23   2.0000      -0.605875       -16.4867
  24   2.0000      -0.597968       -16.2715
  25   2.0000      -0.573493       -15.6055
  26   2.0000      -0.528902       -14.3922
  27   2.0000      -0.509789       -13.8721
  28   2.0000      -0.503977       -13.7139
  29   2.0000      -0.496165       -13.5013
  30   2.0000      -0.475697       -12.9444
  31   2.0000      -0.462124       -12.5750
  32   2.0000      -0.445831       -12.1317
  33   2.0000      -0.436576       -11.8798
  34   2.0000      -0.426973       -11.6185
  35   2.0000      -0.422459       -11.4957
  36   2.0000      -0.410468       -11.1694
  37   2.0000      -0.404333       -11.0025
  38   2.0000      -0.385314       -10.4849
  39   2.0000      -0.380026       -10.3410
  40   2.0000      -0.362962        -9.8767
  41   2.0000      -0.356912        -9.7121
  42   2.0000      -0.351942        -9.5768
  43   2.0000      -0.332001        -9.0342
  44   2.0000      -0.317624        -8.6430
  45   2.0000      -0.314173        -8.5491
  46   2.0000      -0.295841        -8.0502
  47   2.0000      -0.273650        -7.4464
  48   2.0000      -0.265946        -7.2368
  49   2.0000      -0.251245        -6.8367
  50   2.0000      -0.241986        -6.5848
  51   0.0000       0.041059         1.1173
  52   0.0000       0.066746         1.8163
  53   0.0000       0.081146         2.2081
  54   0.0000       0.090953         2.4750
  55   0.0000       0.099636         2.7112

MULLIKEN ATOMIC CHARGES
-----------------------
   0 C :    0.309343
   1 C :   -0.297605
   2 C :   -0.308658
   3 C :   -0.005880
   4 O :   -0.499024
   5 H :    0.169897
   6 H :    0.159208
   7 H :    0.150013
   8 H :    0.145158
   9 H :    0.135632
  10 H :    0.144902
  11 H :    0.146008
  12 C :   -0.008622
  13 H :    0.139311
  14 H :    0.113633
  15 O :   -0.509415
  16 C :    0.092258
  17 C :    0.076573
  18 C :   -0.322746
  19 C :   -0.011533
  20 O :   -0.500814
  21 H :    0.172987
  22 H :    0.174264
  23 O :   -0.598266
  24 H :    0.159717
  25 H :    0.126387
  26 H :    0.141806
  27 H :    0.151708
  28 H :    0.353758
Sum of atomic charges:    0.0000000

LOEWDIN ATOMIC CHARGES
----------------------
   0 C :    0.176106
   1 C :   -0.231900
   2 C :   -0.223503
   3 C :   -0.032291
   4 O :   -0.319973
   5 H :    0.115120
   6 H :    0.124473
   7 H :    0.116585
   8 H :    0.115467
   9 H :    0.103552
  10 H :    0.102793
  11 H :    0.103817
  12 C :   -0.050604
  13 H :    0.099553
  14 H :    0.084138
  15 O :   -0.304597
  16 C :    0.022889
  17 C :    0.033671
  18 C :   -0.241784
  19 C :   -0.031290
  20 O :   -0.310434
  21 H :    0.124330
  22 H :    0.122035
  23 O :   -0.406799
  24 H :    0.123380
  25 H :    0.100515
  26 H :    0.101348
  27 H :    0.107055
  28 H :    0.276346

  Mayer bond orders larger than 0.100000
B(  0-C ,  1-C ) :   0.9242 B(  0-C ,  4-O ) :   0.8988 B(  0-C ,  5-H ) :   0.9345
B(  0-C , 15-O ) :   0.9016 B(  1-C ,  2-C ) :   0.9534 B(  1-C ,  6-H ) :   0.9350
B(  1-C ,  7-H ) :   0.9325 B(  2-C ,  3-C ) :   0.9472 B(  2-C ,  8-H ) :   0.9459
B(  2-C ,  9-H ) :   0.9421 B(  3-C ,  4-O ) :   0.8526 B(  3-C , 10-H ) :   0.9338
B(  3-C , 11-H ) :   0.9387 B( 12-C , 13-H ) :   0.9001 B( 12-C , 14-H ) :   0.9065
B( 12-C , 15-O ) :   0.8522 B( 12-C , 16-C ) :   0.9020 B( 16-C , 17-C ) :   0.8739
B( 16-C , 20-O ) :   0.8725 B( 16-C , 21-H ) :   0.9269 B( 17-C , 18-C ) :   0.9245
B( 17-C , 22-H ) :   0.9315 B( 17-C , 23-O ) :   0.8957 B( 18-C , 19-C ) :   0.9379
B( 18-C , 24-H ) :   0.9413 B( 18-C , 25-H ) :   0.9410 B( 19-C , 20-O ) :   0.8535
B( 19-C , 26-H ) :   0.9317 B( 19-C , 27-H ) :   0.9373 B( 23-O , 28-H ) :   0.7993

FINAL SINGLE POINT ENERGY      -652.849482182794

DIPOLE MOMENT
-------------
                                X             Y             Z
Electronic contribution:     -3.90245      -5.28421       0.70881
Nuclear contribution   :      4.89258       7.14335      -1.11792
                        -----------------------------------------
Total Dipole Moment    :      0.99013       1.85913      -0.40911
                        -----------------------------------------
Magnitude (a.u.)       :      2.14572
Magnitude (Debye)      :      5.45397

Rotational constants in cm-1:     0.048827     0.013938     0.012911
Rotational constants in MHz :  1463.791939   417.841803   387.056260

                             ****ORCA TERMINATED NORMALLY****
TOTAL RUN TIME: 0 days 0 hours 44 minutes 1 seconds 66 msec
