                         Program Version 4.2.0 -  RELEASE  -
|  1> # Test redundant internal optimization
|  2> #
|  3> ! RKS B3LYP  Opt TightSCF SmallPrint
|  4>
|  5> %basis
|  6>         Basis "6-31G"
|  7> end
|  8>
|  9> %geom
| 10> Constraints
| 11> { D 4  0  15  12  165.0   C } # D for Dihedral angle
| 12> { D 0  15  12  16  75.0   C } # D for Dihedral angle
| 13> { D 0  4  3  2   C } # D for Dihedral angle
| 14> { D 4  3  2  1   C } # D for Dihedral angle
| 15> { D 3  2  1  0   C } # D for Dihedral angle
| 16> { D 2  1  0  4   C } # D for Dihedral angle
| 17> { D 1  0  4  3   C } # D for Dihedral angle
| 18> { D 16  20  19  18   C } # D for Dihedral angle
| 19> { D 20  19  18  17   C } # D for Dihedral angle
| 20> { D 19  18  17  16   C } # D for Dihedral angle
| 21> { D 18  17  16  20   C } # D for Dihedral angle
| 22> { D 17  16  20  19   C } # D for Dihedral angle
| 23> { D 15  12  16  20   C } # D for Dihedral angle
| 24> end
| 25> end
| 26>
| 27>
| 28> #%pal
| 29> #nprocs 8
| 30> #end
| 31>
| 32> * xyz 0 1
| 33> C  -21.048   26.222   46.251
| 34> C  -20.361   27.558   45.944
| 35> C  -20.329   28.222   47.341
| 36> C  -20.110   27.022   48.296
| 37> O  -20.473   25.807   47.535
| 38> H  -20.833   25.428   45.533
| 39> H  -19.344   27.382   45.576
| 40> H  -20.898   28.157   45.201
| 41> H  -19.543   28.978   47.434
| 42> H  -21.289   28.710   47.548
| 43> H  -20.733   27.082   49.195
| 44> H  -19.064   26.913   48.597
| 45> C  -23.260   27.170   45.210
| 46> H  -24.268   27.477   45.515
| 47> H  -22.685   28.074   44.968
| 48> O  -22.586   26.394   46.375
| 49> C  -23.378   26.323   43.913
| 50> C  -23.940   27.154   42.755
| 51> C  -22.691   27.950   42.305
| 52> C  -21.534   26.944   42.528
| 53> O  -22.050   25.908   43.449
| 54> H  -23.940   25.412   44.130
| 55> O  -24.433   26.219   41.617
| 56> H  -24.771   27.802   43.054
| 57> H  -22.755   28.289   41.266
| 58> H  -22.560   28.835   42.939
| 59> H  -20.651   27.413   42.975
| 60> H  -21.238   26.437   41.606
| 61> H  -23.615   25.561   41.301
| 62> *
| 63>
| 64>                          ****END OF INPUT****
 Total Charge           Charge          ....    0
 Multiplicity           Mult            ....    1
 Number of Electrons    NEL             ....  102
FINAL SINGLE POINT ENERGY      -652.829526747714
FINAL SINGLE POINT ENERGY      -652.852757870916
FINAL SINGLE POINT ENERGY      -652.857604573487
FINAL SINGLE POINT ENERGY      -652.858550311190
FINAL SINGLE POINT ENERGY      -652.858677121437
FINAL SINGLE POINT ENERGY      -652.858695446987
                    ***********************HURRAY********************

CARTESIAN COORDINATES (ANGSTROEM)
---------------------------------
  C    -20.987585   26.251740   46.202595
  C    -20.205850   27.551028   46.010932
  C    -20.323522   28.210240   47.410021
  C    -20.289040   26.992380   48.357964
  O    -20.611779   25.815919   47.515774
  H    -20.752608   25.454597   45.499760
  H    -19.163306   27.295385   45.788515
  H    -20.570101   28.189594   45.202853
  H    -19.513440   28.918237   47.609678
  H    -21.276004   28.742540   47.496144
  H    -21.020767   27.056438   49.167531
  H    -19.295775   26.813140   48.780755
  C    -23.127148   27.184525   45.210567
  H    -24.124271   27.379076   45.618849
  H    -22.643907   28.153899   45.022043
  O    -22.443959   26.445868   46.250764
  C    -23.262336   26.382312   43.913844
  C    -23.952678   27.123031   42.759147
  C    -22.778894   27.949760   42.170350
  C    -21.559230   27.010503   42.353808
  O    -21.951724   26.001069   43.368328
  H    -23.774984   25.443036   44.143960
  O    -24.498247   26.191041   41.787273
  H    -24.796875   27.739152   43.072618
  H    -22.969563   28.201480   41.124695
  H    -22.652816   28.882206   42.731660
  H    -20.666020   27.538401   42.701686
  H    -21.306783   26.466577   41.438821
  H    -23.860790   25.459826   41.646064

 Multiplicity           Mult            ....    1
 Number of Electrons    NEL             ....  102
 Basis Dimension        Dim             ....  149

ORBITAL ENERGIES
----------------

  NO   OCC          E(Eh)            E(eV)
   0   2.0000     -19.152796      -521.1741
   1   2.0000     -19.143883      -520.9315
   2   2.0000     -19.134470      -520.6754
   3   2.0000     -19.133297      -520.6435
   4   2.0000     -10.269545      -279.4485
   5   2.0000     -10.249374      -278.8997
   6   2.0000     -10.239531      -278.6318
   7   2.0000     -10.237664      -278.5810
   8   2.0000     -10.234792      -278.5028
   9   2.0000     -10.220968      -278.1267
  10   2.0000     -10.197066      -277.4763
  11   2.0000     -10.186413      -277.1864
  12   2.0000     -10.186244      -277.1818
  13   2.0000      -1.049228       -28.5510
  14   2.0000      -1.040819       -28.3221
  15   2.0000      -1.013275       -27.5726
  16   2.0000      -0.986540       -26.8451
  17   2.0000      -0.790862       -21.5205
  18   2.0000      -0.783677       -21.3249
  19   2.0000      -0.771473       -20.9929
  20   2.0000      -0.730974       -19.8908
  21   2.0000      -0.680173       -18.5085
  22   2.0000      -0.611271       -16.6335
  23   2.0000      -0.604753       -16.4562
  24   2.0000      -0.595376       -16.2010
  25   2.0000      -0.571816       -15.5599
  26   2.0000      -0.532150       -14.4806
  27   2.0000      -0.510234       -13.8842
  28   2.0000      -0.500638       -13.6231
  29   2.0000      -0.488973       -13.3056
  30   2.0000      -0.478984       -13.0338
  31   2.0000      -0.460152       -12.5214
  32   2.0000      -0.452741       -12.3197
  33   2.0000      -0.443568       -12.0701
  34   2.0000      -0.429779       -11.6949
  35   2.0000      -0.404848       -11.0165
  36   2.0000      -0.403874       -10.9900
  37   2.0000      -0.401300       -10.9199
  38   2.0000      -0.380680       -10.3588
  39   2.0000      -0.374592       -10.1932
  40   2.0000      -0.366214        -9.9652
  41   2.0000      -0.353583        -9.6215
  42   2.0000      -0.352977        -9.6050
  43   2.0000      -0.337549        -9.1852
  44   2.0000      -0.317357        -8.6357
  45   2.0000      -0.307411        -8.3651
  46   2.0000      -0.293568        -7.9884
  47   2.0000      -0.279300        -7.6001
  48   2.0000      -0.269821        -7.3422
  49   2.0000      -0.251281        -6.8377
  50   2.0000      -0.238090        -6.4788
  51   0.0000       0.051368         1.3978
  52   0.0000       0.074383         2.0241
  53   0.0000       0.088427         2.4062
  54   0.0000       0.094073         2.5599
  55   0.0000       0.101541         2.7631

MULLIKEN ATOMIC CHARGES
-----------------------
   0 C :    0.314288
   1 C :   -0.295067
   2 C :   -0.300234
   3 C :    0.002144
   4 O :   -0.500415
   5 H :    0.175072
   6 H :    0.151422
   7 H :    0.136342
   8 H :    0.140471
   9 H :    0.152986
  10 H :    0.151859
  11 H :    0.140148
  12 C :   -0.019193
  13 H :    0.155844
  14 H :    0.115400
  15 O :   -0.512748
  16 C :    0.062317
  17 C :    0.080828
  18 C :   -0.293336
  19 C :   -0.031211
  20 O :   -0.524416
  21 H :    0.173691
  22 O :   -0.599974
  23 H :    0.154266
  24 H :    0.165420
  25 H :    0.141904
  26 H :    0.144608
  27 H :    0.151239
  28 H :    0.366344
Sum of atomic charges:   -0.0000000

LOEWDIN ATOMIC CHARGES
----------------------
   0 C :    0.183518
   1 C :   -0.232727
   2 C :   -0.218649
   3 C :   -0.025842
   4 O :   -0.303098
   5 H :    0.113794
   6 H :    0.118792
   7 H :    0.108215
   8 H :    0.113165
   9 H :    0.113186
  10 H :    0.108008
  11 H :    0.101548
  12 C :   -0.044322
  13 H :    0.117797
  14 H :    0.085905
  15 O :   -0.329546
  16 C :    0.004446
  17 C :    0.036402
  18 C :   -0.240078
  19 C :   -0.039270
  20 O :   -0.329846
  21 H :    0.121971
  22 O :   -0.412289
  23 H :    0.116869
  24 H :    0.128561
  25 H :    0.111821
  26 H :    0.102014
  27 H :    0.105236
  28 H :    0.284419

  Mayer bond orders larger than 0.100000
B(  0-C ,  1-C ) :   0.9319 B(  0-C ,  4-O ) :   0.9224 B(  0-C ,  5-H ) :   0.9136
B(  0-C , 15-O ) :   0.8185 B(  1-C ,  2-C ) :   0.9476 B(  1-C ,  6-H ) :   0.9352
B(  1-C ,  7-H ) :   0.9283 B(  2-C ,  3-C ) :   0.9553 B(  2-C ,  8-H ) :   0.9453
B(  2-C ,  9-H ) :   0.9460 B(  3-C ,  4-O ) :   0.8406 B(  3-C , 10-H ) :   0.9346
B(  3-C , 11-H ) :   0.9400 B( 12-C , 13-H ) :   0.9285 B( 12-C , 14-H ) :   0.9118
B( 12-C , 15-O ) :   0.8820 B( 12-C , 16-C ) :   0.8836 B( 16-C , 17-C ) :   0.8958
B( 16-C , 20-O ) :   0.8457 B( 16-C , 21-H ) :   0.9227 B( 17-C , 18-C ) :   0.9092
B( 17-C , 22-O ) :   0.8953 B( 17-C , 23-H ) :   0.9339 B( 18-C , 19-C ) :   0.9419
B( 18-C , 24-H ) :   0.9371 B( 18-C , 25-H ) :   0.9335 B( 19-C , 20-O ) :   0.8435
B( 19-C , 26-H ) :   0.9312 B( 19-C , 27-H ) :   0.9373 B( 22-O , 28-H ) :   0.7939

FINAL SINGLE POINT ENERGY      -652.858699112648

DIPOLE MOMENT
-------------
                                X             Y             Z
Electronic contribution:     -2.92708      -6.25586      -0.01300
Nuclear contribution   :      3.54798       7.81429      -0.58119
                        -----------------------------------------
Total Dipole Moment    :      0.62090       1.55843      -0.59419
                        -----------------------------------------
Magnitude (a.u.)       :      1.77969
Magnitude (Debye)      :      4.52360

Rotational constants in cm-1:     0.065896     0.013238     0.012665
Rotational constants in MHz :  1975.502801   396.863178   379.691100

                             ****ORCA TERMINATED NORMALLY****
TOTAL RUN TIME: 0 days 0 hours 27 minutes 11 seconds 955 msec
