                         Program Version 4.2.0 -  RELEASE  -
|  1> # Test redundant internal optimization
|  2> #
|  3> ! RKS B3LYP  Opt TightSCF SmallPrint
|  4>
|  5> %basis
|  6>         Basis "6-31G"
|  7> end
|  8>
|  9> %geom
| 10> Constraints
| 11> { D 4  0  15  12  165.0   C } # D for Dihedral angle
| 12> { D 0  15  12  16  105.0   C } # D for Dihedral angle
| 13> { D 0  4  3  2   C } # D for Dihedral angle
| 14> { D 4  3  2  1   C } # D for Dihedral angle
| 15> { D 3  2  1  0   C } # D for Dihedral angle
| 16> { D 2  1  0  4   C } # D for Dihedral angle
| 17> { D 1  0  4  3   C } # D for Dihedral angle
| 18> { D 16  20  19  18   C } # D for Dihedral angle
| 19> { D 20  19  18  17   C } # D for Dihedral angle
| 20> { D 19  18  17  16   C } # D for Dihedral angle
| 21> { D 18  17  16  20   C } # D for Dihedral angle
| 22> { D 17  16  20  19   C } # D for Dihedral angle
| 23> { D 15  12  16  20   C } # D for Dihedral angle
| 24> end
| 25> end
| 26>
| 27>
| 28> #%pal
| 29> #nprocs 8
| 30> #end
| 31>
| 32> * xyz 0 1
| 33> C  -21.048   26.222   46.251
| 34> C  -20.361   27.558   45.944
| 35> C  -20.329   28.222   47.341
| 36> C  -20.110   27.022   48.296
| 37> O  -20.473   25.807   47.535
| 38> H  -20.833   25.428   45.533
| 39> H  -19.344   27.382   45.576
| 40> H  -20.898   28.157   45.201
| 41> H  -19.543   28.978   47.434
| 42> H  -21.289   28.710   47.548
| 43> H  -20.733   27.082   49.195
| 44> H  -19.064   26.913   48.597
| 45> C  -23.260   27.170   45.210
| 46> H  -23.963   27.904   45.623
| 47> H  -22.507   27.710   44.622
| 48> O  -22.586   26.394   46.375
| 49> C  -24.039   26.240   44.240
| 50> C  -24.592   27.021   43.043
| 51> C  -23.336   27.157   42.150
| 52> C  -22.587   25.823   42.390
| 53> O  -23.135   25.253   43.640
| 54> H  -24.791   25.684   44.804
| 55> H  -25.366   26.435   42.535
| 56> O  -25.200   28.394   43.440
| 57> H  -23.580   27.315   41.094
| 58> H  -22.727   28.007   42.483
| 59> H  -21.506   25.962   42.503
| 60> H  -22.769   25.093   41.596
| 61> H  -24.443   29.000   43.949
| 62> *
| 63>
| 64>                          ****END OF INPUT****
 Total Charge           Charge          ....    0
 Multiplicity           Mult            ....    1
 Number of Electrons    NEL             ....  102
FINAL SINGLE POINT ENERGY      -652.822003566018
FINAL SINGLE POINT ENERGY      -652.845971888846
FINAL SINGLE POINT ENERGY      -652.851002979447
FINAL SINGLE POINT ENERGY      -652.851806740957
FINAL SINGLE POINT ENERGY      -652.851920699577
FINAL SINGLE POINT ENERGY      -652.851950351997
FINAL SINGLE POINT ENERGY      -652.851953977333
                    ***********************HURRAY********************

CARTESIAN COORDINATES (ANGSTROEM)
---------------------------------
  C    -21.013289   26.274570   46.193204
  C    -20.196213   27.552219   46.000844
  C    -20.277414   28.205078   47.406518
  C    -20.266858   26.979770   48.344575
  O    -20.634252   25.819243   47.497831
  H    -20.806080   25.468638   45.486475
  H    -19.163843   27.267289   45.766188
  H    -20.546400   28.211228   45.202857
  H    -19.444268   28.887600   47.599249
  H    -21.212830   28.764190   47.507722
  H    -20.987124   27.058025   49.162812
  H    -19.274464   26.767741   48.753615
  C    -23.126603   27.262039   45.212707
  H    -23.832219   27.932557   45.717743
  H    -22.417643   27.871532   44.637246
  O    -22.458784   26.498287   46.247892
  C    -23.896024   26.311026   44.295056
  C    -24.623093   26.983640   43.117520
  C    -23.472243   27.136697   42.078982
  C    -22.624126   25.868047   42.315393
  O    -23.001404   25.344690   43.655220
  H    -24.572171   25.718889   44.916826
  H    -25.396521   26.314075   42.735820
  O    -25.328355   28.206957   43.437396
  H    -23.847331   27.213969   41.055254
  H    -22.900873   28.048693   42.297812
  H    -21.547026   26.064314   42.297363
  H    -22.848600   25.079415   41.590879
  H    -24.695951   28.932581   43.617002

 Multiplicity           Mult            ....    1
 Number of Electrons    NEL             ....  102
 Basis Dimension        Dim             ....  149

ORBITAL ENERGIES
----------------

  NO   OCC          E(Eh)            E(eV)
   0   2.0000     -19.152617      -521.1692
   1   2.0000     -19.142601      -520.8967
   2   2.0000     -19.135879      -520.7137
   3   2.0000     -19.133724      -520.6551
   4   2.0000     -10.274385      -279.5802
   5   2.0000     -10.247517      -278.8491
   6   2.0000     -10.235242      -278.5151
   7   2.0000     -10.232758      -278.4475
   8   2.0000     -10.229613      -278.3619
   9   2.0000     -10.222828      -278.1773
  10   2.0000     -10.199075      -277.5309
  11   2.0000     -10.189863      -277.2803
  12   2.0000     -10.188577      -277.2453
  13   2.0000      -1.049057       -28.5463
  14   2.0000      -1.036039       -28.1921
  15   2.0000      -1.018732       -27.7211
  16   2.0000      -0.987401       -26.8686
  17   2.0000      -0.786873       -21.4119
  18   2.0000      -0.785714       -21.3804
  19   2.0000      -0.768990       -20.9253
  20   2.0000      -0.731338       -19.9007
  21   2.0000      -0.684934       -18.6380
  22   2.0000      -0.614730       -16.7276
  23   2.0000      -0.602842       -16.4042
  24   2.0000      -0.592843       -16.1321
  25   2.0000      -0.571055       -15.5392
  26   2.0000      -0.532043       -14.4776
  27   2.0000      -0.507958       -13.8222
  28   2.0000      -0.503797       -13.7090
  29   2.0000      -0.492981       -13.4147
  30   2.0000      -0.471427       -12.8282
  31   2.0000      -0.460105       -12.5201
  32   2.0000      -0.445898       -12.1335
  33   2.0000      -0.440110       -11.9760
  34   2.0000      -0.429686       -11.6924
  35   2.0000      -0.418051       -11.3758
  36   2.0000      -0.406485       -11.0610
  37   2.0000      -0.400245       -10.8912
  38   2.0000      -0.383143       -10.4258
  39   2.0000      -0.376463       -10.2441
  40   2.0000      -0.361950        -9.8492
  41   2.0000      -0.353762        -9.6264
  42   2.0000      -0.351270        -9.5586
  43   2.0000      -0.334684        -9.1072
  44   2.0000      -0.317826        -8.6485
  45   2.0000      -0.309786        -8.4297
  46   2.0000      -0.294627        -8.0172
  47   2.0000      -0.273322        -7.4375
  48   2.0000      -0.264706        -7.2030
  49   2.0000      -0.254331        -6.9207
  50   2.0000      -0.234374        -6.3776
  51   0.0000       0.044963         1.2235
  52   0.0000       0.064699         1.7606
  53   0.0000       0.086048         2.3415
  54   0.0000       0.094954         2.5838
  55   0.0000       0.100762         2.7419

MULLIKEN ATOMIC CHARGES
-----------------------
   0 C :    0.310600
   1 C :   -0.293227
   2 C :   -0.298584
   3 C :    0.001709
   4 O :   -0.496753
   5 H :    0.165386
   6 H :    0.151486
   7 H :    0.137064
   8 H :    0.141712
   9 H :    0.153720
  10 H :    0.153797
  11 H :    0.141063
  12 C :   -0.030072
  13 H :    0.148718
  14 H :    0.106373
  15 O :   -0.508915
  16 C :    0.099210
  17 C :    0.081527
  18 C :   -0.312631
  19 C :   -0.022816
  20 O :   -0.509930
  21 H :    0.170681
  22 H :    0.170281
  23 O :   -0.598205
  24 H :    0.157390
  25 H :    0.128045
  26 H :    0.142683
  27 H :    0.155553
  28 H :    0.354133
Sum of atomic charges:   -0.0000000

LOEWDIN ATOMIC CHARGES
----------------------
   0 C :    0.185933
   1 C :   -0.235207
   2 C :   -0.217620
   3 C :   -0.025840
   4 O :   -0.300436
   5 H :    0.109134
   6 H :    0.118298
   7 H :    0.108730
   8 H :    0.113851
   9 H :    0.113730
  10 H :    0.109198
  11 H :    0.102130
  12 C :   -0.052948
  13 H :    0.110012
  14 H :    0.083865
  15 O :   -0.326329
  16 C :    0.013695
  17 C :    0.034065
  18 C :   -0.239928
  19 C :   -0.034317
  20 O :   -0.319009
  21 H :    0.123180
  22 H :    0.121077
  23 O :   -0.406007
  24 H :    0.123018
  25 H :    0.101537
  26 H :    0.100948
  27 H :    0.108576
  28 H :    0.276663

  Mayer bond orders larger than 0.100000
B(  0-C ,  1-C ) :   0.9294 B(  0-C ,  4-O ) :   0.9317 B(  0-C ,  5-H ) :   0.9166
B(  0-C , 15-O ) :   0.8307 B(  1-C ,  2-C ) :   0.9480 B(  1-C ,  6-H ) :   0.9339
B(  1-C ,  7-H ) :   0.9280 B(  2-C ,  3-C ) :   0.9560 B(  2-C ,  8-H ) :   0.9451
B(  2-C ,  9-H ) :   0.9464 B(  3-C ,  4-O ) :   0.8390 B(  3-C , 10-H ) :   0.9343
B(  3-C , 11-H ) :   0.9398 B( 12-C , 13-H ) :   0.9198 B( 12-C , 14-H ) :   0.9116
B( 12-C , 15-O ) :   0.8705 B( 12-C , 16-C ) :   0.8903 B( 16-C , 17-C ) :   0.8685
B( 16-C , 20-O ) :   0.8622 B( 16-C , 21-H ) :   0.9292 B( 17-C , 18-C ) :   0.9206
B( 17-C , 22-H ) :   0.9321 B( 17-C , 23-O ) :   0.8978 B( 18-C , 19-C ) :   0.9394
B( 18-C , 24-H ) :   0.9421 B( 18-C , 25-H ) :   0.9416 B( 19-C , 20-O ) :   0.8501
B( 19-C , 26-H ) :   0.9313 B( 19-C , 27-H ) :   0.9368 B( 23-O , 28-H ) :   0.7990

FINAL SINGLE POINT ENERGY      -652.851954919259

DIPOLE MOMENT
-------------
                                X             Y             Z
Electronic contribution:     -3.61423      -4.63060       1.46282
Nuclear contribution   :      4.49182       6.19604      -2.44685
                        -----------------------------------------
Total Dipole Moment    :      0.87759       1.56545      -0.98403
                        -----------------------------------------
Magnitude (a.u.)       :      2.04673
Magnitude (Debye)      :      5.20237

Rotational constants in cm-1:     0.055575     0.013153     0.012397
Rotational constants in MHz :  1666.099483   394.325134   371.662845

                             ****ORCA TERMINATED NORMALLY****
TOTAL RUN TIME: 0 days 1 hours 52 minutes 36 seconds 514 msec
