                         Program Version 4.2.0 -  RELEASE  -
|  1> # Test redundant internal optimization
|  2> #
|  3> ! RKS B3LYP  Opt TightSCF SmallPrint
|  4>
|  5> %basis
|  6>         Basis "6-31G"
|  7> end
|  8>
|  9> %geom
| 10> Constraints
| 11> { D 4  0  15  12  90.0   C } # D for Dihedral angle
| 12> { D 0  15  12  16  90.0   C } # D for Dihedral angle
| 13> { D 0  4  3  2   C } # D for Dihedral angle
| 14> { D 4  3  2  1   C } # D for Dihedral angle
| 15> { D 3  2  1  0   C } # D for Dihedral angle
| 16> { D 2  1  0  4   C } # D for Dihedral angle
| 17> { D 1  0  4  3   C } # D for Dihedral angle
| 18> { D 16  20  19  18   C } # D for Dihedral angle
| 19> { D 20  19  18  17   C } # D for Dihedral angle
| 20> { D 19  18  17  16   C } # D for Dihedral angle
| 21> { D 18  17  16  20   C } # D for Dihedral angle
| 22> { D 17  16  20  19   C } # D for Dihedral angle
| 23> { D 15  12  16  20   C } # D for Dihedral angle
| 24> end
| 25> end
| 26>
| 27>
| 28> #%pal
| 29> #nprocs 8
| 30> #end
| 31>
| 32> * xyz 0 1
| 33> C  -21.048   26.222   46.251
| 34> C  -20.361   27.558   45.944
| 35> C  -20.329   28.222   47.341
| 36> C  -20.110   27.022   48.296
| 37> O  -20.473   25.807   47.535
| 38> H  -20.833   25.428   45.533
| 39> H  -19.344   27.382   45.576
| 40> H  -20.898   28.157   45.201
| 41> H  -19.543   28.978   47.434
| 42> H  -21.289   28.710   47.548
| 43> H  -20.733   27.082   49.195
| 44> H  -19.064   26.913   48.597
| 45> C  -23.061   27.816   46.783
| 46> H  -23.995   27.735   47.354
| 47> H  -22.311   28.303   47.419
| 48> O  -22.586   26.394   46.375
| 49> C  -23.314   28.739   45.559
| 50> C  -23.668   30.163   46.000
| 51> C  -22.274   30.741   46.343
| 52> C  -21.349   30.070   45.297
| 53> O  -22.085   28.899   44.775
| 54> H  -24.053   28.271   44.905
| 55> H  -24.121   30.714   45.168
| 56> O  -24.649   30.203   47.204
| 57> H  -22.243   31.834   46.288
| 58> H  -21.985   30.448   47.359
| 59> H  -20.401   29.733   45.731
| 60> H  -21.137   30.724   44.446
| 61> H  -24.216   29.659   48.051
| 62> *
| 63>
| 64>                          ****END OF INPUT****
 Total Charge           Charge          ....    0
 Multiplicity           Mult            ....    1
 Number of Electrons    NEL             ....  102
FINAL SINGLE POINT ENERGY      -652.739649098224
FINAL SINGLE POINT ENERGY      -652.815876497641
FINAL SINGLE POINT ENERGY      -652.839542371648
FINAL SINGLE POINT ENERGY      -652.846257404708
FINAL SINGLE POINT ENERGY      -652.847239732651
FINAL SINGLE POINT ENERGY      -652.847575189195
FINAL SINGLE POINT ENERGY      -652.847635668787
FINAL SINGLE POINT ENERGY      -652.847647785546
FINAL SINGLE POINT ENERGY      -652.847650456706
FINAL SINGLE POINT ENERGY      -652.847649884239
                    ***********************HURRAY********************

CARTESIAN COORDINATES (ANGSTROEM)
---------------------------------
  C    -21.126500   26.211946   46.397697
  C    -20.052319   27.226679   45.985753
  C    -19.735895   27.930078   47.334979
  C    -19.883228   26.773832   48.357693
  O    -20.660996   25.717219   47.677725
  H    -21.163045   25.338589   45.746027
  H    -19.177554   26.665501   45.639119
  H    -20.395265   27.899301   45.200765
  H    -18.732515   28.367385   47.354783
  H    -20.451028   28.733309   47.537688
  H    -20.404670   27.071632   49.273254
  H    -18.916887   26.337495   48.628385
  C    -23.089726   27.884832   46.765534
  H    -24.085875   27.654633   47.155700
  H    -22.519041   28.374388   47.569950
  O    -22.522129   26.591486   46.438899
  C    -23.282735   28.826279   45.567438
  C    -23.907871   30.182727   45.940291
  C    -22.647365   31.026084   46.307610
  C    -21.584109   30.497559   45.320495
  O    -22.080614   29.184443   44.821678
  H    -23.904137   28.287840   44.844012
  H    -24.403907   30.606105   45.064638
  O    -24.937050   30.141708   46.955868
  H    -22.825113   32.100162   46.207801
  H    -22.361991   30.823526   47.348302
  H    -20.603009   30.354899   45.782567
  H    -21.471442   31.143587   44.445255
  H    -24.546984   29.973775   47.838091

 Multiplicity           Mult            ....    1
 Number of Electrons    NEL             ....  102
 Basis Dimension        Dim             ....  149

ORBITAL ENERGIES
----------------

  NO   OCC          E(Eh)            E(eV)
   0   2.0000     -19.157180      -521.2934
   1   2.0000     -19.153409      -521.1907
   2   2.0000     -19.136478      -520.7300
   3   2.0000     -19.132428      -520.6198
   4   2.0000     -10.272296      -279.5234
   5   2.0000     -10.253312      -279.0068
   6   2.0000     -10.241837      -278.6946
   7   2.0000     -10.237005      -278.5631
   8   2.0000     -10.236638      -278.5531
   9   2.0000     -10.224172      -278.2139
  10   2.0000     -10.204809      -277.6870
  11   2.0000     -10.190289      -277.2919
  12   2.0000     -10.176805      -276.9250
  13   2.0000      -1.046440       -28.4751
  14   2.0000      -1.039697       -28.2916
  15   2.0000      -1.026208       -27.9245
  16   2.0000      -0.988646       -26.9024
  17   2.0000      -0.792321       -21.5602
  18   2.0000      -0.782420       -21.2907
  19   2.0000      -0.775995       -21.1159
  20   2.0000      -0.733470       -19.9587
  21   2.0000      -0.687332       -18.7033
  22   2.0000      -0.621320       -16.9070
  23   2.0000      -0.604756       -16.4563
  24   2.0000      -0.598521       -16.2866
  25   2.0000      -0.568110       -15.4591
  26   2.0000      -0.530963       -14.4482
  27   2.0000      -0.518344       -14.1049
  28   2.0000      -0.503558       -13.7025
  29   2.0000      -0.486161       -13.2291
  30   2.0000      -0.468278       -12.7425
  31   2.0000      -0.462371       -12.5817
  32   2.0000      -0.450536       -12.2597
  33   2.0000      -0.439673       -11.9641
  34   2.0000      -0.434000       -11.8097
  35   2.0000      -0.422249       -11.4900
  36   2.0000      -0.411779       -11.2051
  37   2.0000      -0.404220       -10.9994
  38   2.0000      -0.388907       -10.5827
  39   2.0000      -0.374859       -10.2004
  40   2.0000      -0.363582        -9.8936
  41   2.0000      -0.356744        -9.7075
  42   2.0000      -0.343701        -9.3526
  43   2.0000      -0.337895        -9.1946
  44   2.0000      -0.323435        -8.8011
  45   2.0000      -0.308416        -8.3924
  46   2.0000      -0.288053        -7.8383
  47   2.0000      -0.278298        -7.5729
  48   2.0000      -0.275876        -7.5070
  49   2.0000      -0.253380        -6.8948
  50   2.0000      -0.238414        -6.4876
  51   0.0000       0.042260         1.1499
  52   0.0000       0.054912         1.4942
  53   0.0000       0.080979         2.2036
  54   0.0000       0.089009         2.4221
  55   0.0000       0.095675         2.6035

MULLIKEN ATOMIC CHARGES
-----------------------
   0 C :    0.308382
   1 C :   -0.305275
   2 C :   -0.314071
   3 C :   -0.005705
   4 O :   -0.500857
   5 H :    0.166067
   6 H :    0.146364
   7 H :    0.201569
   8 H :    0.140181
   9 H :    0.130641
  10 H :    0.137024
  11 H :    0.144296
  12 C :   -0.015411
  13 H :    0.166052
  14 H :    0.106718
  15 O :   -0.527645
  16 C :    0.092801
  17 C :    0.084150
  18 C :   -0.324670
  19 C :   -0.019903
  20 O :   -0.514831
  21 H :    0.168845
  22 H :    0.171883
  23 O :   -0.597326
  24 H :    0.164940
  25 H :    0.134583
  26 H :    0.145628
  27 H :    0.157087
  28 H :    0.358484
Sum of atomic charges:    0.0000000

LOEWDIN ATOMIC CHARGES
----------------------
   0 C :    0.182848
   1 C :   -0.240633
   2 C :   -0.223830
   3 C :   -0.034119
   4 O :   -0.321102
   5 H :    0.113688
   6 H :    0.117961
   7 H :    0.141189
   8 H :    0.113406
   9 H :    0.097693
  10 H :    0.098577
  11 H :    0.102954
  12 C :   -0.046201
  13 H :    0.123086
  14 H :    0.081463
  15 O :   -0.320499
  16 C :    0.008271
  17 C :    0.036757
  18 C :   -0.241087
  19 C :   -0.033222
  20 O :   -0.315980
  21 H :    0.120473
  22 H :    0.121264
  23 O :   -0.403867
  24 H :    0.125911
  25 H :    0.103912
  26 H :    0.102142
  27 H :    0.109535
  28 H :    0.279409

  Mayer bond orders larger than 0.100000
B(  0-C ,  1-C ) :   0.9274 B(  0-C ,  4-O ) :   0.9009 B(  0-C ,  5-H ) :   0.9354
B(  0-C , 15-O ) :   0.8847 B(  1-C ,  2-C ) :   0.9561 B(  1-C ,  6-H ) :   0.9321
B(  1-C ,  7-H ) :   0.8953 B(  2-C ,  3-C ) :   0.9450 B(  2-C ,  8-H ) :   0.9459
B(  2-C ,  9-H ) :   0.9381 B(  3-C ,  4-O ) :   0.8545 B(  3-C , 10-H ) :   0.9352
B(  3-C , 11-H ) :   0.9384 B( 12-C , 13-H ) :   0.9178 B( 12-C , 14-H ) :   0.9145
B( 12-C , 15-O ) :   0.8595 B( 12-C , 16-C ) :   0.8916 B( 16-C , 17-C ) :   0.8650
B( 16-C , 20-O ) :   0.8528 B( 16-C , 21-H ) :   0.9284 B( 17-C , 18-C ) :   0.9208
B( 17-C , 22-H ) :   0.9325 B( 17-C , 23-O ) :   0.9031 B( 18-C , 19-C ) :   0.9419
B( 18-C , 24-H ) :   0.9405 B( 18-C , 25-H ) :   0.9409 B( 19-C , 20-O ) :   0.8355
B( 19-C , 26-H ) :   0.9243 B( 19-C , 27-H ) :   0.9372 B( 23-O , 28-H ) :   0.7965

FINAL SINGLE POINT ENERGY      -652.847648499046

DIPOLE MOMENT
-------------
                                X             Y             Z
Electronic contribution:     -4.48692      -4.47239      -1.67758
Nuclear contribution   :      5.37648       6.13714       2.03958
                        -----------------------------------------
Total Dipole Moment    :      0.88956       1.66475       0.36200
                        -----------------------------------------
Magnitude (a.u.)       :      1.92191
Magnitude (Debye)      :      4.88512

Rotational constants in cm-1:     0.046386     0.016661     0.015157
Rotational constants in MHz :  1390.628760   499.498503   454.403755

                             ****ORCA TERMINATED NORMALLY****
TOTAL RUN TIME: 0 days 1 hours 21 minutes 19 seconds 294 msec
