                         Program Version 4.2.0 -  RELEASE  -
|  1> # Test redundant internal optimization
|  2> #
|  3> ! RKS B3LYP  Opt TightSCF SmallPrint
|  4>
|  5> %basis
|  6>         Basis "6-31G"
|  7> end
|  8>
|  9> %geom
| 10> Constraints
| 11> { D 4  0  15  12  330.0   C } # D for Dihedral angle
| 12> { D 0  15  12  16  150.0   C } # D for Dihedral angle
| 13> { D 0  4  3  2   C } # D for Dihedral angle
| 14> { D 4  3  2  1   C } # D for Dihedral angle
| 15> { D 3  2  1  0   C } # D for Dihedral angle
| 16> { D 2  1  0  4   C } # D for Dihedral angle
| 17> { D 1  0  4  3   C } # D for Dihedral angle
| 18> { D 16  20  19  18   C } # D for Dihedral angle
| 19> { D 20  19  18  17   C } # D for Dihedral angle
| 20> { D 19  18  17  16   C } # D for Dihedral angle
| 21> { D 18  17  16  20   C } # D for Dihedral angle
| 22> { D 17  16  20  19   C } # D for Dihedral angle
| 23> { D 15  12  16  20   C } # D for Dihedral angle
| 24> end
| 25> end
| 26>
| 27>
| 28> #%pal
| 29> #nprocs 8
| 30> #end
| 31>
| 32> * xyz 0 1
| 33> C  -21.048   26.222   46.251
| 34> C  -20.361   27.558   45.944
| 35> C  -20.329   28.222   47.341
| 36> C  -20.110   27.022   48.296
| 37> O  -20.473   25.807   47.535
| 38> H  -20.833   25.428   45.533
| 39> H  -19.344   27.382   45.576
| 40> H  -20.898   28.157   45.201
| 41> H  -19.543   28.978   47.434
| 42> H  -21.289   28.710   47.548
| 43> H  -20.733   27.082   49.195
| 44> H  -19.064   26.913   48.597
| 45> C  -23.271   25.476   47.424
| 46> H  -23.562   24.533   46.944
| 47> H  -22.577   25.244   48.243
| 48> O  -22.586   26.394   46.375
| 49> C  -24.540   26.119   48.048
| 50> C  -25.123   25.238   49.158
| 51> C  -24.185   25.567   50.344
| 52> C  -23.864   27.068   50.132
| 53> O  -24.199   27.374   48.725
| 54> H  -25.245   26.366   47.251
| 55> H  -26.151   25.543   49.382
| 56> O  -25.129   23.727   48.798
| 57> H  -24.647   25.372   51.318
| 58> H  -23.271   24.964   50.281
| 59> H  -22.808   27.300   50.308
| 60> H  -24.480   27.719   50.760
| 61> H  -24.109   23.397   48.571
| 62> *
| 63>
| 64>                          ****END OF INPUT****
 Total Charge           Charge          ....    0
 Multiplicity           Mult            ....    1
 Number of Electrons    NEL             ....  102
FINAL SINGLE POINT ENERGY      -652.830854923572
FINAL SINGLE POINT ENERGY      -652.855046603259
FINAL SINGLE POINT ENERGY      -652.860120949491
FINAL SINGLE POINT ENERGY      -652.860980693724
FINAL SINGLE POINT ENERGY      -652.861117908052
FINAL SINGLE POINT ENERGY      -652.861149321154
                    ***********************HURRAY********************

CARTESIAN COORDINATES (ANGSTROEM)
---------------------------------
  C    -21.054164   26.199879   46.255921
  C    -20.558663   27.621349   45.992811
  C    -20.468586   28.191214   47.424755
  C    -20.025051   26.976955   48.266457
  O    -20.326670   25.776007   47.433468
  H    -20.829651   25.458763   45.482464
  H    -19.574116   27.580377   45.512036
  H    -21.246909   28.178717   45.354091
  H    -19.767865   29.028026   47.502304
  H    -21.460647   28.525612   47.740135
  H    -20.564780   26.891530   49.213823
  H    -18.948729   26.953183   48.460466
  C    -23.100628   25.377926   47.421597
  H    -23.422488   24.451532   46.923083
  H    -22.369954   25.124670   48.197038
  O    -22.488869   26.276584   46.460202
  C    -24.321020   26.094124   47.994399
  C    -25.078192   25.296530   49.070483
  C    -24.243316   25.614531   50.347464
  C    -23.804458   27.076285   50.114580
  O    -23.969596   27.347605   48.662483
  H    -24.970548   26.380179   47.162293
  H    -26.091453   25.690958   49.169115
  O    -25.264727   23.888172   48.794132
  H    -24.825872   25.485054   51.263628
  H    -23.379420   24.938968   50.398062
  H    -22.762889   27.257408   50.398012
  H    -24.440854   27.789438   50.646521
  H    -24.411885   23.410426   48.851175

 Multiplicity           Mult            ....    1
 Number of Electrons    NEL             ....  102
 Basis Dimension        Dim             ....  149

ORBITAL ENERGIES
----------------

  NO   OCC          E(Eh)            E(eV)
   0   2.0000     -19.148883      -521.0676
   1   2.0000     -19.146430      -521.0008
   2   2.0000     -19.139330      -520.8076
   3   2.0000     -19.135822      -520.7122
   4   2.0000     -10.276167      -279.6287
   5   2.0000     -10.244778      -278.7746
   6   2.0000     -10.231884      -278.4237
   7   2.0000     -10.228762      -278.3388
   8   2.0000     -10.227690      -278.3096
   9   2.0000     -10.223984      -278.2087
  10   2.0000     -10.195325      -277.4289
  11   2.0000     -10.180242      -277.0185
  12   2.0000     -10.179391      -276.9953
  13   2.0000      -1.053057       -28.6551
  14   2.0000      -1.032913       -28.1070
  15   2.0000      -1.015491       -27.6329
  16   2.0000      -0.989274       -26.9195
  17   2.0000      -0.787445       -21.4275
  18   2.0000      -0.781354       -21.2617
  19   2.0000      -0.765909       -20.8414
  20   2.0000      -0.730263       -19.8715
  21   2.0000      -0.676874       -18.4187
  22   2.0000      -0.611171       -16.6308
  23   2.0000      -0.598098       -16.2751
  24   2.0000      -0.587960       -15.9992
  25   2.0000      -0.572108       -15.5678
  26   2.0000      -0.529410       -14.4060
  27   2.0000      -0.511054       -13.9065
  28   2.0000      -0.493876       -13.4390
  29   2.0000      -0.489070       -13.3083
  30   2.0000      -0.472825       -12.8662
  31   2.0000      -0.457823       -12.4580
  32   2.0000      -0.442785       -12.0488
  33   2.0000      -0.435526       -11.8513
  34   2.0000      -0.426016       -11.5925
  35   2.0000      -0.412593       -11.2272
  36   2.0000      -0.402667       -10.9571
  37   2.0000      -0.395055       -10.7500
  38   2.0000      -0.378943       -10.3116
  39   2.0000      -0.370018       -10.0687
  40   2.0000      -0.356831        -9.7099
  41   2.0000      -0.351597        -9.5674
  42   2.0000      -0.343845        -9.3565
  43   2.0000      -0.333354        -9.0710
  44   2.0000      -0.328408        -8.9364
  45   2.0000      -0.313680        -8.5357
  46   2.0000      -0.296503        -8.0683
  47   2.0000      -0.270701        -7.3662
  48   2.0000      -0.261792        -7.1237
  49   2.0000      -0.253640        -6.9019
  50   2.0000      -0.240952        -6.5566
  51   0.0000       0.051709         1.4071
  52   0.0000       0.059771         1.6264
  53   0.0000       0.093030         2.5315
  54   0.0000       0.099086         2.6963
  55   0.0000       0.104029         2.8308

MULLIKEN ATOMIC CHARGES
-----------------------
   0 C :    0.298858
   1 C :   -0.257447
   2 C :   -0.307857
   3 C :   -0.017864
   4 O :   -0.517929
   5 H :    0.145560
   6 H :    0.139571
   7 H :    0.163996
   8 H :    0.138181
   9 H :    0.187296
  10 H :    0.140113
  11 H :    0.147020
  12 C :   -0.019490
  13 H :    0.128405
  14 H :    0.150939
  15 O :   -0.528160
  16 C :    0.094516
  17 C :    0.082019
  18 C :   -0.324157
  19 C :   -0.012367
  20 O :   -0.508646
  21 H :    0.166141
  22 H :    0.170103
  23 O :   -0.598911
  24 H :    0.156053
  25 H :    0.137923
  26 H :    0.137345
  27 H :    0.151306
  28 H :    0.357484
Sum of atomic charges:   -0.0000000

LOEWDIN ATOMIC CHARGES
----------------------
   0 C :    0.181214
   1 C :   -0.214618
   2 C :   -0.220641
   3 C :   -0.029875
   4 O :   -0.327064
   5 H :    0.097112
   6 H :    0.110700
   7 H :    0.128008
   8 H :    0.112994
   9 H :    0.131128
  10 H :    0.098694
  11 H :    0.104520
  12 C :   -0.055426
  13 H :    0.096005
  14 H :    0.104252
  15 O :   -0.327255
  16 C :    0.020311
  17 C :    0.035524
  18 C :   -0.242266
  19 C :   -0.031396
  20 O :   -0.317211
  21 H :    0.120124
  22 H :    0.120267
  23 O :   -0.405947
  24 H :    0.122198
  25 H :    0.106377
  26 H :    0.097281
  27 H :    0.106446
  28 H :    0.278542

  Mayer bond orders larger than 0.100000
B(  0-C ,  1-C ) :   0.9457 B(  0-C ,  4-O ) :   0.9012 B(  0-C ,  5-H ) :   0.9231
B(  0-C , 15-O ) :   0.8480 B(  1-C ,  2-C ) :   0.9545 B(  1-C ,  6-H ) :   0.9384
B(  1-C ,  7-H ) :   0.9348 B(  2-C ,  3-C ) :   0.9577 B(  2-C ,  8-H ) :   0.9442
B(  2-C ,  9-H ) :   0.9298 B(  3-C ,  4-O ) :   0.8281 B(  3-C , 10-H ) :   0.9312
B(  3-C , 11-H ) :   0.9406 B( 12-C , 13-H ) :   0.9092 B( 12-C , 14-H ) :   0.9049
B( 12-C , 15-O ) :   0.8408 B( 12-C , 16-C ) :   0.9062 B( 16-C , 17-C ) :   0.8762
B( 16-C , 20-O ) :   0.8599 B( 16-C , 21-H ) :   0.9288 B( 17-C , 18-C ) :   0.9202
B( 17-C , 22-H ) :   0.9328 B( 17-C , 23-O ) :   0.8991 B( 18-C , 19-C ) :   0.9415
B( 18-C , 24-H ) :   0.9424 B( 18-C , 25-H ) :   0.9409 B( 19-C , 20-O ) :   0.8517
B( 19-C , 26-H ) :   0.9272 B( 19-C , 27-H ) :   0.9370 B( 23-O , 28-H ) :   0.7968

FINAL SINGLE POINT ENERGY      -652.861152224368

DIPOLE MOMENT
-------------
                                X             Y             Z
Electronic contribution:     -2.84584      -2.59970      -2.84317
Nuclear contribution   :      3.54274       2.74933       3.63329
                        -----------------------------------------
Total Dipole Moment    :      0.69690       0.14963       0.79012
                        -----------------------------------------
Magnitude (a.u.)       :      1.06412
Magnitude (Debye)      :      2.70478

Rotational constants in cm-1:     0.048646     0.016100     0.014605
Rotational constants in MHz :  1458.372304   482.656090   437.855358

                             ****ORCA TERMINATED NORMALLY****
TOTAL RUN TIME: 0 days 2 hours 8 minutes 31 seconds 752 msec
