                         Program Version 4.2.1 -  RELEASE  -
|  1> # Test redundant internal optimization
|  2> #
|  3> ! RKS B3LYP  Opt TightSCF SmallPrint
|  4>
|  5> %basis
|  6>         Basis "6-31G"
|  7> end
|  8>
|  9> %geom
| 10> Constraints
| 11> { D 4  0  19  14  315.0   C } # D for Dihedral angle
| 12> { D 0  19  14  12  270.0   C } # D for Dihedral angle
| 13> { D 0  4  3  2   C } # D for Dihedral angle
| 14> { D 4  3  2  1   C } # D for Dihedral angle
| 15> { D 3  2  1  0   C } # D for Dihedral angle
| 16> { D 2  1  0  4   C } # D for Dihedral angle
| 17> { D 1  0  4  3   C } # D for Dihedral angle
| 18> { D 14  15  16  17   C } # D for Dihedral angle
| 19> { D 15  16  17  12   C } # D for Dihedral angle
| 20> { D 16  17  12  14   C } # D for Dihedral angle
| 21> { D 17  12  14  15   C } # D for Dihedral angle
| 22> { D 12  14  15  16   C } # D for Dihedral angle
| 23> end
| 24> end
| 25>
| 26>
| 27> #%pal
| 28> #nprocs 8
| 29> #end
| 30>
| 31> * xyz 0 1
| 32> C  -21.048   26.222   46.251
| 33> C  -20.361   27.558   45.944
| 34> C  -20.329   28.222   47.341
| 35> C  -20.110   27.022   48.296
| 36> O  -20.473   25.807   47.535
| 37> H  -20.833   25.428   45.533
| 38> H  -19.344   27.382   45.576
| 39> H  -20.898   28.157   45.201
| 40> H  -19.543   28.978   47.434
| 41> H  -21.289   28.710   47.548
| 42> H  -20.733   27.082   49.195
| 43> H  -19.064   26.913   48.597
| 44> C  -23.552   24.217   46.090
| 45> H  -24.300   23.544   46.539
| 46> C  -23.132   25.318   47.072
| 47> C  -22.133   24.563   47.980
| 48> C  -21.438   23.584   47.002
| 49> O  -22.310   23.489   45.811
| 50> H  -23.930   24.584   45.134
| 51> O  -22.472   26.381   46.366
| 52> H  -23.974   25.743   47.628
| 53> H  -21.423   25.231   48.478
| 54> H  -22.675   24.011   48.759
| 55> H  -21.306   22.584   47.431
| 56> H  -20.466   23.953   46.661
| 57> *
| 58>
| 59>                          ****END OF INPUT****
 Total Charge           Charge          ....    0
 Multiplicity           Mult            ....    1
 Number of Electrons    NEL             ....   86
FINAL SINGLE POINT ENERGY      -538.356506236387
FINAL SINGLE POINT ENERGY      -538.428410234452
FINAL SINGLE POINT ENERGY      -538.431259931958
FINAL SINGLE POINT ENERGY      -538.431947025884
FINAL SINGLE POINT ENERGY      -538.432039744083
FINAL SINGLE POINT ENERGY      -538.432064990404
FINAL SINGLE POINT ENERGY      -538.432071168269
FINAL SINGLE POINT ENERGY      -538.432074087089
                    ***********************HURRAY********************

CARTESIAN COORDINATES (ANGSTROEM)
---------------------------------
  C    -20.861805   26.337264   46.182972
  C    -20.466386   27.792955   45.930346
  C    -20.364501   28.346067   47.370275
  C    -19.815770   27.145319   48.172707
  O    -20.068227   25.944185   47.329264
  H    -20.596366   25.626521   45.395135
  H    -19.494529   27.818456   45.424442
  H    -21.203946   28.315974   45.318811
  H    -19.713553   29.222615   47.441318
  H    -21.360620   28.623622   47.725886
  H    -20.312355   27.011847   49.138505
  H    -18.734089   27.192107   48.328877
  C    -23.474936   24.205178   46.004712
  H    -24.382424   23.674962   46.332435
  C    -23.041776   25.242894   47.044190
  C    -22.329958   24.356226   48.084756
  C    -21.656118   23.259529   47.230249
  O    -22.340093   23.280136   45.910699
  H    -23.637721   24.640872   45.018656
  O    -22.295160   26.321760   46.384090
  H    -23.896063   25.770089   47.478017
  H    -21.619636   24.897679   48.705475
  H    -23.107264   23.923951   48.727554
  H    -21.762984   22.260017   47.666663
  H    -20.599721   23.472778   47.055966

 Multiplicity           Mult            ....    1
 Number of Electrons    NEL             ....   86
 Basis Dimension        Dim             ....  127

ORBITAL ENERGIES
----------------

  NO   OCC          E(Eh)            E(eV)
   0   2.0000     -19.146514      -521.0031
   1   2.0000     -19.137120      -520.7475
   2   2.0000     -19.125074      -520.4197
   3   2.0000     -10.277057      -279.6529
   4   2.0000     -10.237387      -278.5735
   5   2.0000     -10.230131      -278.3760
   6   2.0000     -10.214677      -277.9555
   7   2.0000     -10.211716      -277.8749
   8   2.0000     -10.186871      -277.1989
   9   2.0000     -10.183902      -277.1181
  10   2.0000     -10.179269      -276.9920
  11   2.0000      -1.050672       -28.5902
  12   2.0000      -1.008565       -27.4444
  13   2.0000      -0.986007       -26.8306
  14   2.0000      -0.792985       -21.5782
  15   2.0000      -0.773939       -21.0600
  16   2.0000      -0.739581       -20.1250
  17   2.0000      -0.717049       -19.5119
  18   2.0000      -0.616454       -16.7746
  19   2.0000      -0.599308       -16.3080
  20   2.0000      -0.592368       -16.1192
  21   2.0000      -0.561846       -15.2886
  22   2.0000      -0.516298       -14.0492
  23   2.0000      -0.495607       -13.4862
  24   2.0000      -0.484270       -13.1777
  25   2.0000      -0.481721       -13.1083
  26   2.0000      -0.448001       -12.1907
  27   2.0000      -0.444451       -12.0941
  28   2.0000      -0.414687       -11.2842
  29   2.0000      -0.411142       -11.1877
  30   2.0000      -0.402466       -10.9516
  31   2.0000      -0.388445       -10.5701
  32   2.0000      -0.370873       -10.0920
  33   2.0000      -0.364531        -9.9194
  34   2.0000      -0.358475        -9.7546
  35   2.0000      -0.352690        -9.5972
  36   2.0000      -0.340980        -9.2785
  37   2.0000      -0.326322        -8.8797
  38   2.0000      -0.301812        -8.2127
  39   2.0000      -0.294008        -8.0004
  40   2.0000      -0.259747        -7.0681
  41   2.0000      -0.257184        -6.9983
  42   2.0000      -0.228148        -6.2082
  43   0.0000       0.077501         2.1089
  44   0.0000       0.094201         2.5633
  45   0.0000       0.103774         2.8238
  46   0.0000       0.110971         3.0197
  47   0.0000       0.117838         3.2065

MULLIKEN ATOMIC CHARGES
-----------------------
   0 C :    0.305711
   1 C :   -0.259619
   2 C :   -0.298621
   3 C :   -0.014725
   4 O :   -0.519217
   5 H :    0.162659
   6 H :    0.145464
   7 H :    0.161347
   8 H :    0.141946
   9 H :    0.159666
  10 H :    0.139827
  11 H :    0.150199
  12 C :   -0.003846
  13 H :    0.119598
  14 C :    0.084707
  15 C :   -0.296969
  16 C :   -0.021828
  17 O :   -0.528923
  18 H :    0.160675
  19 O :   -0.543239
  20 H :    0.141902
  21 H :    0.171733
  22 H :    0.135962
  23 H :    0.131897
  24 H :    0.173693
Sum of atomic charges:    0.0000000

LOEWDIN ATOMIC CHARGES
----------------------
   0 C :    0.180786
   1 C :   -0.214005
   2 C :   -0.216145
   3 C :   -0.032279
   4 O :   -0.325929
   5 H :    0.103781
   6 H :    0.114002
   7 H :    0.126697
   8 H :    0.114380
   9 H :    0.118025
  10 H :    0.099982
  11 H :    0.105916
  12 C :   -0.045279
  13 H :    0.088957
  14 C :    0.045325
  15 C :   -0.234614
  16 C :   -0.036670
  17 O :   -0.338743
  18 H :    0.117643
  19 O :   -0.335898
  20 H :    0.109104
  21 H :    0.131950
  22 H :    0.111326
  23 H :    0.096638
  24 H :    0.115051

  Mayer bond orders larger than 0.100000
B(  0-C ,  1-C ) :   0.9422 B(  0-C ,  4-O ) :   0.8834 B(  0-C ,  5-H ) :   0.9181
B(  0-C , 19-O ) :   0.8510 B(  1-C ,  2-C ) :   0.9555 B(  1-C ,  6-H ) :   0.9394
B(  1-C ,  7-H ) :   0.9362 B(  2-C ,  3-C ) :   0.9566 B(  2-C ,  8-H ) :   0.9448
B(  2-C ,  9-H ) :   0.9443 B(  3-C ,  4-O ) :   0.8324 B(  3-C , 10-H ) :   0.9329
B(  3-C , 11-H ) :   0.9401 B( 12-C , 13-H ) :   0.9126 B( 12-C , 14-C ) :   0.9149
B( 12-C , 17-O ) :   0.8695 B( 12-C , 18-H ) :   0.9336 B( 14-C , 15-C ) :   0.9434
B( 14-C , 19-O ) :   0.8542 B( 14-C , 20-H ) :   0.9357 B( 15-C , 16-C ) :   0.9462
B( 15-C , 21-H ) :   0.9242 B( 15-C , 22-H ) :   0.9334 B( 16-C , 17-O ) :   0.8460
B( 16-C , 23-H ) :   0.9348 B( 16-C , 24-H ) :   0.9246

FINAL SINGLE POINT ENERGY      -538.432074632620

DIPOLE MOMENT
-------------
                                X             Y             Z
Electronic contribution:     -0.75926      -2.33347      -2.49317
Nuclear contribution   :      0.77380       3.22695       3.29479
                        -----------------------------------------
Total Dipole Moment    :      0.01454       0.89347       0.80162
                        -----------------------------------------
Magnitude (a.u.)       :      1.20046
Magnitude (Debye)      :      3.05132

Rotational constants in cm-1:     0.076285     0.025102     0.022916
Rotational constants in MHz :  2286.957821   752.544837   687.011445

                             ****ORCA TERMINATED NORMALLY****
TOTAL RUN TIME: 0 days 0 hours 10 minutes 38 seconds 503 msec
