                         Program Version 4.2.0 -  RELEASE  -
|  1> # Test redundant internal optimization
|  2> #
|  3> ! RKS B3LYP  Opt TightSCF SmallPrint
|  4>
|  5> %basis
|  6>         Basis "6-31G"
|  7> end
|  8>
|  9> %geom
| 10> Constraints
| 11> { D 4  0  15  12  285.0   C } # D for Dihedral angle
| 12> { D 0  15  12  16  105.0   C } # D for Dihedral angle
| 13> { D 0  4  3  2   C } # D for Dihedral angle
| 14> { D 4  3  2  1   C } # D for Dihedral angle
| 15> { D 3  2  1  0   C } # D for Dihedral angle
| 16> { D 2  1  0  4   C } # D for Dihedral angle
| 17> { D 1  0  4  3   C } # D for Dihedral angle
| 18> { D 16  20  19  18   C } # D for Dihedral angle
| 19> { D 20  19  18  17   C } # D for Dihedral angle
| 20> { D 19  18  17  16   C } # D for Dihedral angle
| 21> { D 18  17  16  20   C } # D for Dihedral angle
| 22> { D 17  16  20  19   C } # D for Dihedral angle
| 23> { D 15  12  16  20   C } # D for Dihedral angle
| 24> end
| 25> end
| 26>
| 27>
| 28> #%pal
| 29> #nprocs 8
| 30> #end
| 31>
| 32> * xyz 0 1
| 33> C  -21.048   26.222   46.251
| 34> C  -20.361   27.558   45.944
| 35> C  -20.329   28.222   47.341
| 36> C  -20.110   27.022   48.296
| 37> O  -20.473   25.807   47.535
| 38> H  -20.833   25.428   45.533
| 39> H  -19.344   27.382   45.576
| 40> H  -20.898   28.157   45.201
| 41> H  -19.543   28.978   47.434
| 42> H  -21.289   28.710   47.548
| 43> H  -20.733   27.082   49.195
| 44> H  -19.064   26.913   48.597
| 45> C  -23.396   25.070   46.435
| 46> H  -24.260   25.144   45.764
| 47> H  -22.777   24.226   46.106
| 48> O  -22.586   26.394   46.375
| 49> C  -23.913   24.747   47.864
| 50> C  -22.764   24.717   48.879
| 51> C  -22.535   26.226   49.137
| 52> C  -23.963   26.819   49.050
| 53> O  -24.793   25.817   48.345
| 54> H  -24.510   23.834   47.831
| 55> H  -23.087   24.213   49.797
| 56> O  -21.496   23.998   48.345
| 57> H  -22.058   26.424   50.102
| 58> H  -21.893   26.648   48.354
| 59> H  -23.993   27.764   48.497
| 60> H  -24.412   26.972   50.036
| 61> H  -21.156   24.486   47.425
| 62> *
| 63>
| 64>                          ****END OF INPUT****
 Total Charge           Charge          ....    0
 Multiplicity           Mult            ....    1
 Number of Electrons    NEL             ....  102
FINAL SINGLE POINT ENERGY      -652.755983265125
FINAL SINGLE POINT ENERGY      -652.832700139256
FINAL SINGLE POINT ENERGY      -652.857436901702
FINAL SINGLE POINT ENERGY      -652.865236902878
FINAL SINGLE POINT ENERGY      -652.866905218936
FINAL SINGLE POINT ENERGY      -652.867326180798
FINAL SINGLE POINT ENERGY      -652.867496705526
FINAL SINGLE POINT ENERGY      -652.867519986958
FINAL SINGLE POINT ENERGY      -652.867525566181
FINAL SINGLE POINT ENERGY      -652.867525656410
                    ***********************HURRAY********************

CARTESIAN COORDINATES (ANGSTROEM)
---------------------------------
  C    -20.994704   26.282708   46.188573
  C    -20.320279   27.568856   45.698416
  C    -20.142682   28.353853   47.021017
  C    -19.850734   27.243863   48.059046
  O    -20.312886   25.968943   47.433787
  H    -20.790222   25.412749   45.551510
  H    -19.351814   27.317752   45.253821
  H    -20.934303   28.091119   44.963141
  H    -19.334240   29.089506   46.974109
  H    -21.072178   28.877530   47.266339
  H    -20.366324   27.393232   49.008814
  H    -18.782080   27.112739   48.249685
  C    -23.228711   25.246015   46.400311
  H    -24.045326   25.398060   45.687936
  H    -22.633504   24.382879   46.069562
  O    -22.416633   26.468089   46.253560
  C    -23.881775   24.869910   47.733861
  C    -22.990086   24.551845   48.945218
  C    -22.804361   25.959540   49.585048
  C    -24.168914   26.633692   49.320557
  O    -24.826171   25.856575   48.242860
  H    -24.484852   23.988265   47.475338
  H    -23.540296   23.893498   49.623409
  O    -21.767052   23.861690   48.628949
  H    -22.552405   25.905391   50.647808
  H    -22.013913   26.479773   49.053276
  H    -24.072915   27.674302   48.994692
  H    -24.832667   26.593493   50.190370
  H    -21.104972   24.504134   48.271988

 Multiplicity           Mult            ....    1
 Number of Electrons    NEL             ....  102
 Basis Dimension        Dim             ....  149

ORBITAL ENERGIES
----------------

  NO   OCC          E(Eh)            E(eV)
   0   2.0000     -19.172039      -521.6977
   1   2.0000     -19.157803      -521.3103
   2   2.0000     -19.129434      -520.5384
   3   2.0000     -19.112535      -520.0785
   4   2.0000     -10.293099      -280.0895
   5   2.0000     -10.244691      -278.7722
   6   2.0000     -10.230154      -278.3766
   7   2.0000     -10.226710      -278.2829
   8   2.0000     -10.225194      -278.2417
   9   2.0000     -10.219575      -278.0888
  10   2.0000     -10.200151      -277.5602
  11   2.0000     -10.197874      -277.4983
  12   2.0000     -10.176237      -276.9095
  13   2.0000      -1.069029       -29.0897
  14   2.0000      -1.019199       -27.7338
  15   2.0000      -1.010033       -27.4844
  16   2.0000      -0.991193       -26.9717
  17   2.0000      -0.801931       -21.8217
  18   2.0000      -0.770551       -20.9677
  19   2.0000      -0.763546       -20.7771
  20   2.0000      -0.741202       -20.1691
  21   2.0000      -0.677294       -18.4301
  22   2.0000      -0.615069       -16.7369
  23   2.0000      -0.605033       -16.4638
  24   2.0000      -0.596912       -16.2428
  25   2.0000      -0.571065       -15.5395
  26   2.0000      -0.525230       -14.2922
  27   2.0000      -0.510981       -13.9045
  28   2.0000      -0.506410       -13.7801
  29   2.0000      -0.485265       -13.2047
  30   2.0000      -0.477187       -12.9849
  31   2.0000      -0.460377       -12.5275
  32   2.0000      -0.445463       -12.1217
  33   2.0000      -0.429993       -11.7007
  34   2.0000      -0.424211       -11.5434
  35   2.0000      -0.415470       -11.3055
  36   2.0000      -0.408100       -11.1050
  37   2.0000      -0.397954       -10.8289
  38   2.0000      -0.374815       -10.1992
  39   2.0000      -0.371715       -10.1149
  40   2.0000      -0.366858        -9.9827
  41   2.0000      -0.361225        -9.8294
  42   2.0000      -0.346132        -9.4187
  43   2.0000      -0.343165        -9.3380
  44   2.0000      -0.320777        -8.7288
  45   2.0000      -0.313250        -8.5240
  46   2.0000      -0.295390        -8.0380
  47   2.0000      -0.280791        -7.6407
  48   2.0000      -0.275580        -7.4989
  49   2.0000      -0.247362        -6.7311
  50   2.0000      -0.230662        -6.2766
  51   0.0000       0.065074         1.7707
  52   0.0000       0.083328         2.2675
  53   0.0000       0.086474         2.3531
  54   0.0000       0.094382         2.5683
  55   0.0000       0.108964         2.9651

MULLIKEN ATOMIC CHARGES
-----------------------
   0 C :    0.293363
   1 C :   -0.262494
   2 C :   -0.303104
   3 C :   -0.009806
   4 O :   -0.543594
   5 H :    0.152237
   6 H :    0.152627
   7 H :    0.168841
   8 H :    0.150696
   9 H :    0.167045
  10 H :    0.146951
  11 H :    0.157128
  12 C :   -0.031351
  13 H :    0.165528
  14 H :    0.139767
  15 O :   -0.512642
  16 C :    0.098945
  17 C :    0.093900
  18 C :   -0.335665
  19 C :   -0.007840
  20 O :   -0.522249
  21 H :    0.146592
  22 H :    0.154456
  23 O :   -0.646109
  24 H :    0.142539
  25 H :    0.160412
  26 H :    0.142335
  27 H :    0.143196
  28 H :    0.398296
Sum of atomic charges:    0.0000000

LOEWDIN ATOMIC CHARGES
----------------------
   0 C :    0.169984
   1 C :   -0.210995
   2 C :   -0.214707
   3 C :   -0.030573
   4 O :   -0.330792
   5 H :    0.096070
   6 H :    0.118315
   7 H :    0.130662
   8 H :    0.118855
   9 H :    0.120965
  10 H :    0.104790
  11 H :    0.110174
  12 C :   -0.047713
  13 H :    0.120836
  14 H :    0.106754
  15 O :   -0.319918
  16 C :    0.010832
  17 C :    0.039400
  18 C :   -0.247764
  19 C :   -0.027491
  20 O :   -0.325470
  21 H :    0.115956
  22 H :    0.110671
  23 O :   -0.436882
  24 H :    0.116249
  25 H :    0.117233
  26 H :    0.101661
  27 H :    0.100875
  28 H :    0.282021

  Mayer bond orders larger than 0.100000
B(  0-C ,  1-C ) :   0.9427 B(  0-C ,  4-O ) :   0.8400 B(  0-C ,  5-H ) :   0.9183
B(  0-C , 15-O ) :   0.9068 B(  1-C ,  2-C ) :   0.9564 B(  1-C ,  6-H ) :   0.9397
B(  1-C ,  7-H ) :   0.9361 B(  2-C ,  3-C ) :   0.9578 B(  2-C ,  8-H ) :   0.9440
B(  2-C ,  9-H ) :   0.9433 B(  3-C ,  4-O ) :   0.8039 B(  3-C , 10-H ) :   0.9222
B(  3-C , 11-H ) :   0.9414 B( 12-C , 13-H ) :   0.9336 B( 12-C , 14-H ) :   0.9040
B( 12-C , 15-O ) :   0.8371 B( 12-C , 16-C ) :   0.9075 B( 16-C , 17-C ) :   0.8794
B( 16-C , 20-O ) :   0.8705 B( 16-C , 21-H ) :   0.9172 B( 17-C , 18-C ) :   0.9325
B( 17-C , 22-H ) :   0.9362 B( 17-C , 23-O ) :   0.9363 B( 18-C , 19-C ) :   0.9451
B( 18-C , 24-H ) :   0.9441 B( 18-C , 25-H ) :   0.9143 B( 19-C , 20-O ) :   0.8402
B( 19-C , 26-H ) :   0.9324 B( 19-C , 27-H ) :   0.9379 B( 23-O , 28-H ) :   0.7140

FINAL SINGLE POINT ENERGY      -652.867525715871

DIPOLE MOMENT
-------------
                                X             Y             Z
Electronic contribution:     -2.80155      -3.85280      -0.96568
Nuclear contribution   :      3.83279       4.97228       0.70970
                        -----------------------------------------
Total Dipole Moment    :      1.03123       1.11948      -0.25598
                        -----------------------------------------
Magnitude (a.u.)       :      1.54344
Magnitude (Debye)      :      3.92310

Rotational constants in cm-1:     0.042311     0.019053     0.018404
Rotational constants in MHz :  1268.445718   571.197641   551.743792

                             ****ORCA TERMINATED NORMALLY****
TOTAL RUN TIME: 0 days 0 hours 46 minutes 22 seconds 245 msec
