                         Program Version 4.2.1 -  RELEASE  -
|  1> # Test redundant internal optimization
|  2> #
|  3> ! RKS B3LYP  Opt TightSCF SmallPrint
|  4>
|  5> %basis
|  6>         Basis "6-31G"
|  7> end
|  8>
|  9> %geom
| 10> Constraints
| 11> { D 4  0  19  14  345.0   C } # D for Dihedral angle
| 12> { D 0  19  14  12  210.0   C } # D for Dihedral angle
| 13> { D 0  4  3  2   C } # D for Dihedral angle
| 14> { D 4  3  2  1   C } # D for Dihedral angle
| 15> { D 3  2  1  0   C } # D for Dihedral angle
| 16> { D 2  1  0  4   C } # D for Dihedral angle
| 17> { D 1  0  4  3   C } # D for Dihedral angle
| 18> { D 14  15  16  17   C } # D for Dihedral angle
| 19> { D 15  16  17  12   C } # D for Dihedral angle
| 20> { D 16  17  12  14   C } # D for Dihedral angle
| 21> { D 17  12  14  15   C } # D for Dihedral angle
| 22> { D 12  14  15  16   C } # D for Dihedral angle
| 23> end
| 24> end
| 25>
| 26>
| 27> #%pal
| 28> #nprocs 8
| 29> #end
| 30>
| 31> * xyz 0 1
| 32> C  -21.048   26.222   46.251
| 33> C  -20.361   27.558   45.944
| 34> C  -20.329   28.222   47.341
| 35> C  -20.110   27.022   48.296
| 36> O  -20.473   25.807   47.535
| 37> H  -20.833   25.428   45.533
| 38> H  -19.344   27.382   45.576
| 39> H  -20.898   28.157   45.201
| 40> H  -19.543   28.978   47.434
| 41> H  -21.289   28.710   47.548
| 42> H  -20.733   27.082   49.195
| 43> H  -19.064   26.913   48.597
| 44> C  -24.479   25.341   47.269
| 45> H  -25.030   25.159   48.205
| 46> C  -23.040   25.792   47.547
| 47> C  -22.348   24.449   47.875
| 48> C  -23.064   23.445   46.938
| 49> O  -24.326   24.092   46.514
| 50> H  -25.054   26.024   46.642
| 51> O  -22.472   26.381   46.366
| 52> H  -22.968   26.518   48.364
| 53> H  -21.266   24.476   47.708
| 54> H  -22.517   24.184   48.926
| 55> H  -23.297   22.497   47.436
| 56> H  -22.489   23.236   46.031
| 57> *
| 58>
| 59>                          ****END OF INPUT****
 Total Charge           Charge          ....    0
 Multiplicity           Mult            ....    1
 Number of Electrons    NEL             ....   86
FINAL SINGLE POINT ENERGY      -538.394909029861
FINAL SINGLE POINT ENERGY      -538.426437587560
FINAL SINGLE POINT ENERGY      -538.428193499934
FINAL SINGLE POINT ENERGY      -538.428481469732
FINAL SINGLE POINT ENERGY      -538.428525666910
FINAL SINGLE POINT ENERGY      -538.428537624500
                    ***********************HURRAY********************

CARTESIAN COORDINATES (ANGSTROEM)
---------------------------------
  C    -20.951264   26.275215   46.262725
  C    -20.471183   27.694374   45.953418
  C    -20.288350   28.282052   47.372286
  C    -19.792651   27.071349   48.195045
  O    -20.149294   25.865491   47.395705
  H    -20.753221   25.539052   45.479057
  H    -19.515338   27.644863   45.418936
  H    -21.194070   28.243643   45.347348
  H    -19.579339   29.115146   47.395392
  H    -21.250628   28.641150   47.749956
  H    -20.264335   26.993951   49.178687
  H    -18.705488   27.053018   48.315117
  C    -24.470079   25.328621   47.072624
  H    -25.188022   25.206267   47.897599
  C    -23.086584   25.694009   47.613052
  C    -22.558264   24.319995   48.066350
  C    -23.144124   23.345910   47.020024
  O    -24.262431   24.062966   46.362832
  H    -24.844890   26.055697   46.351781
  O    -22.386150   26.314338   46.484724
  H    -23.127723   26.413128   48.441404
  H    -21.471719   24.291748   48.128796
  H    -22.971939   24.111955   49.061347
  H    -23.523798   22.422121   47.470683
  H    -22.424116   23.088940   46.237111

 Multiplicity           Mult            ....    1
 Number of Electrons    NEL             ....   86
 Basis Dimension        Dim             ....  127

ORBITAL ENERGIES
----------------

  NO   OCC          E(Eh)            E(eV)
   0   2.0000     -19.151919      -521.1502
   1   2.0000     -19.134019      -520.6631
   2   2.0000     -19.121755      -520.3294
   3   2.0000     -10.280831      -279.7556
   4   2.0000     -10.238446      -278.6023
   5   2.0000     -10.234304      -278.4896
   6   2.0000     -10.215531      -277.9787
   7   2.0000     -10.214363      -277.9470
   8   2.0000     -10.191553      -277.3262
   9   2.0000     -10.186063      -277.1769
  10   2.0000     -10.174536      -276.8632
  11   2.0000      -1.053371       -28.6637
  12   2.0000      -1.009044       -27.4575
  13   2.0000      -0.984519       -26.7901
  14   2.0000      -0.794535       -21.6204
  15   2.0000      -0.775278       -21.0964
  16   2.0000      -0.741285       -20.1714
  17   2.0000      -0.718375       -19.5480
  18   2.0000      -0.615285       -16.7428
  19   2.0000      -0.603617       -16.4252
  20   2.0000      -0.591823       -16.1043
  21   2.0000      -0.560854       -15.2616
  22   2.0000      -0.521853       -14.2003
  23   2.0000      -0.495242       -13.4762
  24   2.0000      -0.487744       -13.2722
  25   2.0000      -0.481965       -13.1149
  26   2.0000      -0.452906       -12.3242
  27   2.0000      -0.444680       -12.1004
  28   2.0000      -0.418122       -11.3777
  29   2.0000      -0.409685       -11.1481
  30   2.0000      -0.405331       -11.0296
  31   2.0000      -0.386792       -10.5251
  32   2.0000      -0.370244       -10.0749
  33   2.0000      -0.362039        -9.8516
  34   2.0000      -0.360738        -9.8162
  35   2.0000      -0.358594        -9.7578
  36   2.0000      -0.347138        -9.4461
  37   2.0000      -0.327165        -8.9026
  38   2.0000      -0.304307        -8.2806
  39   2.0000      -0.290677        -7.9097
  40   2.0000      -0.262638        -7.1467
  41   2.0000      -0.247882        -6.7452
  42   2.0000      -0.229358        -6.2411
  43   0.0000       0.069879         1.9015
  44   0.0000       0.095857         2.6084
  45   0.0000       0.103420         2.8142
  46   0.0000       0.103974         2.8293
  47   0.0000       0.119524         3.2524

MULLIKEN ATOMIC CHARGES
-----------------------
   0 C :    0.312545
   1 C :   -0.257439
   2 C :   -0.306295
   3 C :   -0.015398
   4 O :   -0.517586
   5 H :    0.156017
   6 H :    0.144076
   7 H :    0.163728
   8 H :    0.146743
   9 H :    0.156400
  10 H :    0.144453
  11 H :    0.152110
  12 C :    0.004526
  13 H :    0.120563
  14 C :    0.090703
  15 C :   -0.329768
  16 C :   -0.000323
  17 O :   -0.521216
  18 H :    0.166402
  19 O :   -0.547539
  20 H :    0.124745
  21 H :    0.201074
  22 H :    0.133224
  23 H :    0.133146
  24 H :    0.145107
Sum of atomic charges:   -0.0000000

LOEWDIN ATOMIC CHARGES
----------------------
   0 C :    0.185276
   1 C :   -0.216454
   2 C :   -0.218004
   3 C :   -0.032149
   4 O :   -0.322138
   5 H :    0.102764
   6 H :    0.113287
   7 H :    0.127678
   8 H :    0.116975
   9 H :    0.115720
  10 H :    0.102748
  11 H :    0.107110
  12 C :   -0.034705
  13 H :    0.088643
  14 C :    0.047409
  15 C :   -0.249398
  16 C :   -0.029728
  17 O :   -0.332175
  18 H :    0.121993
  19 O :   -0.341465
  20 H :    0.093192
  21 H :    0.142005
  22 H :    0.111288
  23 H :    0.097543
  24 H :    0.102582

  Mayer bond orders larger than 0.100000
B(  0-C ,  1-C ) :   0.9373 B(  0-C ,  4-O ) :   0.8906 B(  0-C ,  5-H ) :   0.9257
B(  0-C , 19-O ) :   0.8468 B(  1-C ,  2-C ) :   0.9542 B(  1-C ,  6-H ) :   0.9362
B(  1-C ,  7-H ) :   0.9357 B(  2-C ,  3-C ) :   0.9554 B(  2-C ,  8-H ) :   0.9444
B(  2-C ,  9-H ) :   0.9453 B(  3-C ,  4-O ) :   0.8279 B(  3-C , 10-H ) :   0.9345
B(  3-C , 11-H ) :   0.9396 B( 12-C , 13-H ) :   0.9143 B( 12-C , 14-C ) :   0.9314
B( 12-C , 17-O ) :   0.8739 B( 12-C , 18-H ) :   0.9300 B( 14-C , 15-C ) :   0.9404
B( 14-C , 19-O ) :   0.8238 B( 14-C , 20-H ) :   0.9241 B( 15-C , 16-C ) :   0.9445
B( 15-C , 21-H ) :   0.9064 B( 15-C , 22-H ) :   0.9360 B( 16-C , 17-O ) :   0.8579
B( 16-C , 23-H ) :   0.9335 B( 16-C , 24-H ) :   0.9368

FINAL SINGLE POINT ENERGY      -538.428538050258

DIPOLE MOMENT
-------------
                                X             Y             Z
Electronic contribution:     -1.75047      -2.13525      -2.37430
Nuclear contribution   :      2.53435       3.00554       3.26199
                        -----------------------------------------
Total Dipole Moment    :      0.78388       0.87029       0.88769
                        -----------------------------------------
Magnitude (a.u.)       :      1.46965
Magnitude (Debye)      :      3.73556

Rotational constants in cm-1:     0.082143     0.022578     0.021032
Rotational constants in MHz :  2462.588132   676.880078   630.527986

                             ****ORCA TERMINATED NORMALLY****
TOTAL RUN TIME: 0 days 0 hours 8 minutes 32 seconds 817 msec
