                         Program Version 4.2.0 -  RELEASE  -
|  1> # Test redundant internal optimization
|  2> #
|  3> ! RKS B3LYP  Opt TightSCF SmallPrint
|  4>
|  5> %basis
|  6>         Basis "6-31G"
|  7> end
|  8>
|  9> %geom
| 10> Constraints
| 11> { D 4  0  15  12  150.0   C } # D for Dihedral angle
| 12> { D 0  15  12  16  105.0   C } # D for Dihedral angle
| 13> { D 0  4  3  2   C } # D for Dihedral angle
| 14> { D 4  3  2  1   C } # D for Dihedral angle
| 15> { D 3  2  1  0   C } # D for Dihedral angle
| 16> { D 2  1  0  4   C } # D for Dihedral angle
| 17> { D 1  0  4  3   C } # D for Dihedral angle
| 18> { D 16  20  19  18   C } # D for Dihedral angle
| 19> { D 20  19  18  17   C } # D for Dihedral angle
| 20> { D 19  18  17  16   C } # D for Dihedral angle
| 21> { D 18  17  16  20   C } # D for Dihedral angle
| 22> { D 17  16  20  19   C } # D for Dihedral angle
| 23> { D 15  12  16  20   C } # D for Dihedral angle
| 24> end
| 25> end
| 26>
| 27>
| 28> #%pal
| 29> #nprocs 8
| 30> #end
| 31>
| 32> * xyz 0 1
| 33> C  -21.048   26.222   46.251
| 34> C  -20.361   27.558   45.944
| 35> C  -20.329   28.222   47.341
| 36> C  -20.110   27.022   48.296
| 37> O  -20.473   25.807   47.535
| 38> H  -20.833   25.428   45.533
| 39> H  -19.344   27.382   45.576
| 40> H  -20.898   28.157   45.201
| 41> H  -19.543   28.978   47.434
| 42> H  -21.289   28.710   47.548
| 43> H  -20.733   27.082   49.195
| 44> H  -19.064   26.913   48.597
| 45> C  -23.210   27.459   45.431
| 46> H  -23.913   28.079   46.001
| 47> H  -22.429   28.113   45.022
| 48> O  -22.586   26.394   46.375
| 49> C  -23.973   26.827   44.235
| 50> C  -24.475   27.902   43.265
| 51> C  -23.190   28.232   42.470
| 52> C  -22.472   26.862   42.378
| 53> O  -23.068   26.005   43.425
| 54> H  -24.752   26.164   44.617
| 55> H  -25.243   27.485   42.603
| 56> O  -25.072   29.142   43.985
| 57> H  -23.398   28.660   41.484
| 58> H  -22.578   28.953   43.025
| 59> H  -21.393   26.942   42.552
| 60> H  -22.641   26.365   41.419
| 61> H  -24.322   29.579   44.652
| 62> *
| 63>
| 64>                          ****END OF INPUT****
 Total Charge           Charge          ....    0
 Multiplicity           Mult            ....    1
 Number of Electrons    NEL             ....  102
FINAL SINGLE POINT ENERGY      -652.816641396216
FINAL SINGLE POINT ENERGY      -652.841318879941
FINAL SINGLE POINT ENERGY      -652.847671640723
FINAL SINGLE POINT ENERGY      -652.849654671934
FINAL SINGLE POINT ENERGY      -652.849907337442
FINAL SINGLE POINT ENERGY      -652.849990473812
FINAL SINGLE POINT ENERGY      -652.850001211097
FINAL SINGLE POINT ENERGY      -652.850005006188
                    ***********************HURRAY********************

CARTESIAN COORDINATES (ANGSTROEM)
---------------------------------
  C    -21.030530   26.285733   46.225676
  C    -20.143729   27.514658   46.020836
  C    -20.185605   28.182903   47.421081
  C    -20.241303   26.965717   48.369838
  O    -20.673808   25.820551   47.535964
  H    -20.852281   25.464578   45.529938
  H    -19.130575   27.162017   45.795872
  H    -20.444245   28.180451   45.208896
  H    -19.314549   28.818656   47.606412
  H    -21.085955   28.798308   47.522902
  H    -20.952831   27.093171   49.189797
  H    -19.260795   26.704833   48.779261
  C    -23.102975   27.559973   45.442286
  H    -23.822773   28.078547   46.086185
  H    -22.381829   28.297659   45.067671
  O    -22.468648   26.547120   46.258821
  C    -23.849074   26.882262   44.291711
  C    -24.544384   27.836257   43.305033
  C    -23.366072   28.242267   42.371691
  C    -22.523410   26.949920   42.299893
  O    -22.936031   26.105361   43.451463
  H    -24.541614   26.155897   44.725193
  H    -25.305280   27.288868   42.744954
  O    -25.260819   28.941370   43.906691
  H    -23.710594   28.581261   41.391622
  H    -22.802497   29.064821   42.832847
  H    -21.446412   27.138646   42.360642
  H    -22.726585   26.373305   41.392486
  H    -24.634797   29.608891   44.254339

 Multiplicity           Mult            ....    1
 Number of Electrons    NEL             ....  102
 Basis Dimension        Dim             ....  149

ORBITAL ENERGIES
----------------

  NO   OCC          E(Eh)            E(eV)
   0   2.0000     -19.152457      -521.1648
   1   2.0000     -19.142649      -520.8980
   2   2.0000     -19.135201      -520.6953
   3   2.0000     -19.132771      -520.6292
   4   2.0000     -10.274850      -279.5929
   5   2.0000     -10.247657      -278.8529
   6   2.0000     -10.235674      -278.5268
   7   2.0000     -10.232702      -278.4460
   8   2.0000     -10.229470      -278.3580
   9   2.0000     -10.223777      -278.2031
  10   2.0000     -10.199840      -277.5517
  11   2.0000     -10.191737      -277.3313
  12   2.0000     -10.191102      -277.3140
  13   2.0000      -1.048256       -28.5245
  14   2.0000      -1.036060       -28.1926
  15   2.0000      -1.018905       -27.7258
  16   2.0000      -0.986899       -26.8549
  17   2.0000      -0.788192       -21.4478
  18   2.0000      -0.786379       -21.3985
  19   2.0000      -0.769709       -20.9448
  20   2.0000      -0.732189       -19.9239
  21   2.0000      -0.685611       -18.6564
  22   2.0000      -0.615342       -16.7443
  23   2.0000      -0.603750       -16.4289
  24   2.0000      -0.594553       -16.1786
  25   2.0000      -0.569989       -15.5102
  26   2.0000      -0.531972       -14.4757
  27   2.0000      -0.509293       -13.8586
  28   2.0000      -0.504417       -13.7259
  29   2.0000      -0.493731       -13.4351
  30   2.0000      -0.471463       -12.8292
  31   2.0000      -0.460853       -12.5404
  32   2.0000      -0.446697       -12.1552
  33   2.0000      -0.439566       -11.9612
  34   2.0000      -0.429734       -11.6937
  35   2.0000      -0.419644       -11.4191
  36   2.0000      -0.406252       -11.0547
  37   2.0000      -0.401096       -10.9144
  38   2.0000      -0.383152       -10.4261
  39   2.0000      -0.378635       -10.3032
  40   2.0000      -0.362421        -9.8620
  41   2.0000      -0.353978        -9.6322
  42   2.0000      -0.353245        -9.6123
  43   2.0000      -0.334340        -9.0978
  44   2.0000      -0.318668        -8.6714
  45   2.0000      -0.310101        -8.4383
  46   2.0000      -0.291127        -7.9220
  47   2.0000      -0.273365        -7.4386
  48   2.0000      -0.265457        -7.2234
  49   2.0000      -0.254021        -6.9123
  50   2.0000      -0.234250        -6.3743
  51   0.0000       0.043652         1.1878
  52   0.0000       0.060144         1.6366
  53   0.0000       0.085996         2.3401
  54   0.0000       0.093562         2.5459
  55   0.0000       0.100757         2.7417

MULLIKEN ATOMIC CHARGES
-----------------------
   0 C :    0.319363
   1 C :   -0.300624
   2 C :   -0.300896
   3 C :    0.002188
   4 O :   -0.494922
   5 H :    0.166730
   6 H :    0.154329
   7 H :    0.138556
   8 H :    0.142724
   9 H :    0.149795
  10 H :    0.152026
  11 H :    0.141833
  12 C :   -0.023470
  13 H :    0.149847
  14 H :    0.105442
  15 O :   -0.514884
  16 C :    0.096145
  17 C :    0.085850
  18 C :   -0.317832
  19 C :   -0.018708
  20 O :   -0.511528
  21 H :    0.172011
  22 H :    0.168583
  23 O :   -0.598161
  24 H :    0.158114
  25 H :    0.127654
  26 H :    0.142050
  27 H :    0.153693
  28 H :    0.354092
Sum of atomic charges:    0.0000000

LOEWDIN ATOMIC CHARGES
----------------------
   0 C :    0.188164
   1 C :   -0.234405
   2 C :   -0.218628
   3 C :   -0.026655
   4 O :   -0.303854
   5 H :    0.110308
   6 H :    0.120796
   7 H :    0.109293
   8 H :    0.114354
   9 H :    0.110927
  10 H :    0.108106
  11 H :    0.102496
  12 C :   -0.049934
  13 H :    0.110310
  14 H :    0.083528
  15 O :   -0.325525
  16 C :    0.012372
  17 C :    0.034865
  18 C :   -0.240446
  19 C :   -0.033266
  20 O :   -0.320034
  21 H :    0.123310
  22 H :    0.120366
  23 O :   -0.405994
  24 H :    0.123403
  25 H :    0.100931
  26 H :    0.100514
  27 H :    0.107918
  28 H :    0.276780

  Mayer bond orders larger than 0.100000
B(  0-C ,  1-C ) :   0.9313 B(  0-C ,  4-O ) :   0.9246 B(  0-C ,  5-H ) :   0.9209
B(  0-C , 15-O ) :   0.8388 B(  1-C ,  2-C ) :   0.9482 B(  1-C ,  6-H ) :   0.9338
B(  1-C ,  7-H ) :   0.9262 B(  2-C ,  3-C ) :   0.9543 B(  2-C ,  8-H ) :   0.9455
B(  2-C ,  9-H ) :   0.9466 B(  3-C ,  4-O ) :   0.8423 B(  3-C , 10-H ) :   0.9342
B(  3-C , 11-H ) :   0.9397 B( 12-C , 13-H ) :   0.9192 B( 12-C , 14-H ) :   0.9098
B( 12-C , 15-O ) :   0.8715 B( 12-C , 16-C ) :   0.8909 B( 16-C , 17-C ) :   0.8680
B( 16-C , 20-O ) :   0.8590 B( 16-C , 21-H ) :   0.9288 B( 17-C , 18-C ) :   0.9198
B( 17-C , 22-H ) :   0.9326 B( 17-C , 23-O ) :   0.8981 B( 18-C , 19-C ) :   0.9390
B( 18-C , 24-H ) :   0.9421 B( 18-C , 25-H ) :   0.9418 B( 19-C , 20-O ) :   0.8510
B( 19-C , 26-H ) :   0.9311 B( 19-C , 27-H ) :   0.9371 B( 23-O , 28-H ) :   0.7994

FINAL SINGLE POINT ENERGY      -652.850005365489

DIPOLE MOMENT
-------------
                                X             Y             Z
Electronic contribution:     -3.86039      -4.97518       0.99272
Nuclear contribution   :      4.82267       6.72209      -1.75985
                        -----------------------------------------
Total Dipole Moment    :      0.96229       1.74691      -0.76713
                        -----------------------------------------
Magnitude (a.u.)       :      2.13687
Magnitude (Debye)      :      5.43149

Rotational constants in cm-1:     0.054031     0.013463     0.012800
Rotational constants in MHz :  1619.822672   403.599108   383.725794

                             ****ORCA TERMINATED NORMALLY****
TOTAL RUN TIME: 0 days 1 hours 22 minutes 36 seconds 440 msec
