                         Program Version 4.2.0 -  RELEASE  -
|  1> # Test redundant internal optimization
|  2> #
|  3> ! RKS B3LYP  Opt TightSCF SmallPrint
|  4>
|  5> %basis
|  6>         Basis "6-31G"
|  7> end
|  8>
|  9> %geom
| 10> Constraints
| 11> { D 4  0  15  12  180.0   C } # D for Dihedral angle
| 12> { D 0  15  12  16  195.0   C } # D for Dihedral angle
| 13> { D 0  4  3  2   C } # D for Dihedral angle
| 14> { D 4  3  2  1   C } # D for Dihedral angle
| 15> { D 3  2  1  0   C } # D for Dihedral angle
| 16> { D 2  1  0  4   C } # D for Dihedral angle
| 17> { D 1  0  4  3   C } # D for Dihedral angle
| 18> { D 16  20  19  18   C } # D for Dihedral angle
| 19> { D 20  19  18  17   C } # D for Dihedral angle
| 20> { D 19  18  17  16   C } # D for Dihedral angle
| 21> { D 18  17  16  20   C } # D for Dihedral angle
| 22> { D 17  16  20  19   C } # D for Dihedral angle
| 23> { D 15  12  16  20   C } # D for Dihedral angle
| 24> end
| 25> end
| 26>
| 27>
| 28> #%pal
| 29> #nprocs 8
| 30> #end
| 31>
| 32> * xyz 0 1
| 33> C  -21.048   26.222   46.251
| 34> C  -20.361   27.558   45.944
| 35> C  -20.329   28.222   47.341
| 36> C  -20.110   27.022   48.296
| 37> O  -20.473   25.807   47.535
| 38> H  -20.833   25.428   45.533
| 39> H  -19.344   27.382   45.576
| 40> H  -20.898   28.157   45.201
| 41> H  -19.543   28.978   47.434
| 42> H  -21.289   28.710   47.548
| 43> H  -20.733   27.082   49.195
| 44> H  -19.064   26.913   48.597
| 45> C  -23.309   26.834   45.072
| 46> H  -22.737   27.640   44.596
| 47> H  -23.372   25.995   44.367
| 48> O  -22.586   26.394   46.375
| 49> C  -24.753   27.345   45.330
| 50> C  -25.475   27.660   44.015
| 51> C  -25.894   26.248   43.541
| 52> C  -26.213   25.512   44.866
| 53> O  -25.567   26.291   45.945
| 54> H  -24.718   28.176   46.037
| 55> O  -26.725   28.539   44.290
| 56> H  -24.840   28.180   43.290
| 57> H  -26.749   26.266   42.857
| 58> H  -25.059   25.762   43.021
| 59> H  -25.823   24.488   44.882
| 60> H  -27.284   25.487   45.083
| 61> H  -27.376   28.037   45.014
| 62> *
| 63>
| 64>                          ****END OF INPUT****
 Total Charge           Charge          ....    0
 Multiplicity           Mult            ....    1
 Number of Electrons    NEL             ....  102
FINAL SINGLE POINT ENERGY      -652.827807150041
FINAL SINGLE POINT ENERGY      -652.851035845127
FINAL SINGLE POINT ENERGY      -652.855163942015
FINAL SINGLE POINT ENERGY      -652.855848689351
FINAL SINGLE POINT ENERGY      -652.855941455853
FINAL SINGLE POINT ENERGY      -652.855952031384
                    ***********************HURRAY********************

CARTESIAN COORDINATES (ANGSTROEM)
---------------------------------
  C    -21.074705   26.240844   46.159636
  C    -20.350158   27.564091   45.917280
  C    -20.472859   28.258108   47.298315
  C    -20.373897   27.073468   48.281406
  O    -20.662020   25.858405   47.476808
  H    -20.805617   25.427713   45.476737
  H    -19.301061   27.352643   45.679259
  H    -20.764028   28.162493   45.101566
  H    -19.690940   29.005495   47.462203
  H    -21.446323   28.750039   47.382228
  H    -21.097444   27.128159   49.098296
  H    -19.368296   26.944290   48.692482
  C    -23.182684   26.777770   44.970103
  H    -22.660191   27.611600   44.477971
  H    -23.198750   25.928042   44.269052
  O    -22.526596   26.390496   46.201126
  C    -24.598086   27.236205   45.314435
  C    -25.433041   27.640507   44.090965
  C    -25.956344   26.265732   43.595773
  C    -26.173511   25.481430   44.913570
  O    -25.390540   26.187072   45.956317
  H    -24.528889   28.053670   46.038903
  O    -26.520997   28.523693   44.478392
  H    -24.874656   28.189003   43.330500
  H    -26.872663   26.389408   43.013275
  H    -25.206249   25.780434   42.960817
  H    -25.829594   24.444741   44.851937
  H    -27.219242   25.483636   45.237105
  H    -26.925619   28.185812   45.305546

 Multiplicity           Mult            ....    1
 Number of Electrons    NEL             ....  102
 Basis Dimension        Dim             ....  149

ORBITAL ENERGIES
----------------

  NO   OCC          E(Eh)            E(eV)
   0   2.0000     -19.140734      -520.8458
   1   2.0000     -19.140037      -520.8269
   2   2.0000     -19.139554      -520.8137
   3   2.0000     -19.138936      -520.7969
   4   2.0000     -10.279734      -279.7258
   5   2.0000     -10.245232      -278.7869
   6   2.0000     -10.236148      -278.5398
   7   2.0000     -10.235661      -278.5265
   8   2.0000     -10.229836      -278.3680
   9   2.0000     -10.223878      -278.2059
  10   2.0000     -10.191256      -277.3182
  11   2.0000     -10.189624      -277.2738
  12   2.0000     -10.187722      -277.2220
  13   2.0000      -1.053667       -28.6717
  14   2.0000      -1.037146       -28.2222
  15   2.0000      -1.007483       -27.4150
  16   2.0000      -0.992964       -27.0199
  17   2.0000      -0.788427       -21.4542
  18   2.0000      -0.785010       -21.3612
  19   2.0000      -0.769394       -20.9363
  20   2.0000      -0.731985       -19.9183
  21   2.0000      -0.677285       -18.4299
  22   2.0000      -0.605789       -16.4843
  23   2.0000      -0.602559       -16.3965
  24   2.0000      -0.591670       -16.1002
  25   2.0000      -0.582712       -15.8564
  26   2.0000      -0.525286       -14.2937
  27   2.0000      -0.514068       -13.9885
  28   2.0000      -0.497550       -13.5390
  29   2.0000      -0.492965       -13.4143
  30   2.0000      -0.474790       -12.9197
  31   2.0000      -0.461653       -12.5622
  32   2.0000      -0.454015       -12.3544
  33   2.0000      -0.443286       -12.0624
  34   2.0000      -0.427581       -11.6351
  35   2.0000      -0.410547       -11.1715
  36   2.0000      -0.401191       -10.9170
  37   2.0000      -0.394679       -10.7398
  38   2.0000      -0.376355       -10.2412
  39   2.0000      -0.373256       -10.1568
  40   2.0000      -0.361912        -9.8481
  41   2.0000      -0.358058        -9.7432
  42   2.0000      -0.353941        -9.6312
  43   2.0000      -0.334122        -9.0919
  44   2.0000      -0.313157        -8.5214
  45   2.0000      -0.306971        -8.3531
  46   2.0000      -0.300751        -8.1839
  47   2.0000      -0.273080        -7.4309
  48   2.0000      -0.258432        -7.0323
  49   2.0000      -0.254580        -6.9275
  50   2.0000      -0.242543        -6.5999
  51   0.0000       0.063682         1.7329
  52   0.0000       0.079004         2.1498
  53   0.0000       0.086865         2.3637
  54   0.0000       0.095658         2.6030
  55   0.0000       0.102779         2.7968

MULLIKEN ATOMIC CHARGES
-----------------------
   0 C :    0.309937
   1 C :   -0.287336
   2 C :   -0.296594
   3 C :   -0.000347
   4 O :   -0.499446
   5 H :    0.139190
   6 H :    0.149860
   7 H :    0.141337
   8 H :    0.142831
   9 H :    0.157821
  10 H :    0.158141
  11 H :    0.141600
  12 C :   -0.001335
  13 H :    0.118573
  14 H :    0.127410
  15 O :   -0.499733
  16 C :    0.071419
  17 C :    0.073270
  18 C :   -0.297347
  19 C :   -0.031129
  20 O :   -0.504224
  21 H :    0.165695
  22 O :   -0.601768
  23 H :    0.148446
  24 H :    0.164354
  25 H :    0.142815
  26 H :    0.153333
  27 H :    0.146299
  28 H :    0.366928
Sum of atomic charges:   -0.0000000

LOEWDIN ATOMIC CHARGES
----------------------
   0 C :    0.181699
   1 C :   -0.234175
   2 C :   -0.216556
   3 C :   -0.024710
   4 O :   -0.300259
   5 H :    0.095973
   6 H :    0.116955
   7 H :    0.111463
   8 H :    0.114669
   9 H :    0.116237
  10 H :    0.111507
  11 H :    0.102401
  12 C :   -0.044899
  13 H :    0.089801
  14 H :    0.091722
  15 O :   -0.320821
  16 C :    0.018986
  17 C :    0.034374
  18 C :   -0.242213
  19 C :   -0.038232
  20 O :   -0.316293
  21 H :    0.119206
  22 O :   -0.414227
  23 H :    0.113491
  24 H :    0.127198
  25 H :    0.111932
  26 H :    0.107682
  27 H :    0.102497
  28 H :    0.284591

  Mayer bond orders larger than 0.100000
B(  0-C ,  1-C ) :   0.9277 B(  0-C ,  4-O ) :   0.9406 B(  0-C ,  5-H ) :   0.9208
B(  0-C , 15-O ) :   0.8329 B(  1-C ,  2-C ) :   0.9512 B(  1-C ,  6-H ) :   0.9334
B(  1-C ,  7-H ) :   0.9300 B(  2-C ,  3-C ) :   0.9555 B(  2-C ,  8-H ) :   0.9450
B(  2-C ,  9-H ) :   0.9448 B(  3-C ,  4-O ) :   0.8348 B(  3-C , 10-H ) :   0.9339
B(  3-C , 11-H ) :   0.9397 B( 12-C , 13-H ) :   0.8991 B( 12-C , 14-H ) :   0.9153
B( 12-C , 15-O ) :   0.8487 B( 12-C , 16-C ) :   0.8999 B( 16-C , 17-C ) :   0.8995
B( 16-C , 20-O ) :   0.8729 B( 16-C , 21-H ) :   0.9234 B( 17-C , 18-C ) :   0.9124
B( 17-C , 22-O ) :   0.8955 B( 17-C , 23-H ) :   0.9333 B( 18-C , 19-C ) :   0.9394
B( 18-C , 24-H ) :   0.9368 B( 18-C , 25-H ) :   0.9338 B( 19-C , 20-O ) :   0.8507
B( 19-C , 26-H ) :   0.9332 B( 19-C , 27-H ) :   0.9376 B( 22-O , 28-H ) :   0.7929

FINAL SINGLE POINT ENERGY      -652.855954071989

DIPOLE MOMENT
-------------
                                X             Y             Z
Electronic contribution:     -2.46307      -2.04066       2.37095
Nuclear contribution   :      2.98249       2.47922      -3.35248
                        -----------------------------------------
Total Dipole Moment    :      0.51943       0.43856      -0.98153
                        -----------------------------------------
Magnitude (a.u.)       :      1.19396
Magnitude (Debye)      :      3.03481

Rotational constants in cm-1:     0.061699     0.011693     0.011120
Rotational constants in MHz :  1849.680197   350.552022   333.358337

                             ****ORCA TERMINATED NORMALLY****
TOTAL RUN TIME: 0 days 0 hours 24 minutes 19 seconds 686 msec
