                         Program Version 4.2.1 -  RELEASE  -
|  1> # Test redundant internal optimization
|  2> #
|  3> ! RKS B3LYP  Opt TightSCF SmallPrint
|  4>
|  5> %basis
|  6>         Basis "6-31G"
|  7> end
|  8>
|  9> %geom
| 10> Constraints
| 11> { D 4  0  19  14  225.0   C } # D for Dihedral angle
| 12> { D 0  19  14  12  210.0   C } # D for Dihedral angle
| 13> { D 0  4  3  2   C } # D for Dihedral angle
| 14> { D 4  3  2  1   C } # D for Dihedral angle
| 15> { D 3  2  1  0   C } # D for Dihedral angle
| 16> { D 2  1  0  4   C } # D for Dihedral angle
| 17> { D 1  0  4  3   C } # D for Dihedral angle
| 18> { D 14  15  16  17   C } # D for Dihedral angle
| 19> { D 15  16  17  12   C } # D for Dihedral angle
| 20> { D 16  17  12  14   C } # D for Dihedral angle
| 21> { D 17  12  14  15   C } # D for Dihedral angle
| 22> { D 12  14  15  16   C } # D for Dihedral angle
| 23> end
| 24> end
| 25>
| 26>
| 27> #%pal
| 28> #nprocs 8
| 29> #end
| 30>
| 31> * xyz 0 1
| 32> C  -21.048   26.222   46.251
| 33> C  -20.361   27.558   45.944
| 34> C  -20.329   28.222   47.341
| 35> C  -20.110   27.022   48.296
| 36> O  -20.473   25.807   47.535
| 37> H  -20.833   25.428   45.533
| 38> H  -19.344   27.382   45.576
| 39> H  -20.898   28.157   45.201
| 40> H  -19.543   28.978   47.434
| 41> H  -21.289   28.710   47.548
| 42> H  -20.733   27.082   49.195
| 43> H  -19.064   26.913   48.597
| 44> C  -24.518   26.588   45.063
| 45> H  -25.237   26.014   44.459
| 46> C  -23.222   25.800   45.287
| 47> C  -22.491   26.008   43.940
| 48> C  -22.892   27.450   43.541
| 49> O  -24.088   27.792   44.342
| 50> H  -25.007   26.923   45.979
| 51> O  -22.472   26.381   46.366
| 52> H  -23.396   24.743   45.517
| 53> H  -21.407   25.883   44.021
| 54> H  -22.857   25.287   43.197
| 55> H  -23.135   27.541   42.477
| 56> H  -22.118   28.183   43.791
| 57> *
| 58>
| 59>                          ****END OF INPUT****
 Total Charge           Charge          ....    0
 Multiplicity           Mult            ....    1
 Number of Electrons    NEL             ....   86
FINAL SINGLE POINT ENERGY      -538.416796941435
FINAL SINGLE POINT ENERGY      -538.426368390143
FINAL SINGLE POINT ENERGY      -538.427379238821
FINAL SINGLE POINT ENERGY      -538.427579663500
FINAL SINGLE POINT ENERGY      -538.427598922986
FINAL SINGLE POINT ENERGY      -538.427606093752
                    ***********************HURRAY********************

CARTESIAN COORDINATES (ANGSTROEM)
---------------------------------
  C    -20.878960   26.231978   46.232936
  C    -20.255999   27.613103   46.029270
  C    -20.390863   28.236768   47.440237
  C    -20.182428   27.023470   48.372631
  O    -20.403483   25.821970   47.529630
  H    -20.563594   25.460005   45.526557
  H    -19.200699   27.501265   45.751374
  H    -20.766494   28.196767   45.261247
  H    -19.663304   29.033504   47.619815
  H    -21.397412   28.647407   47.560806
  H    -20.886024   26.998324   49.208692
  H    -19.160158   26.952953   48.756861
  C    -24.413772   26.681513   45.157239
  H    -25.250837   26.146268   44.686192
  C    -23.167025   25.799026   45.214978
  C    -22.632285   25.924280   43.777518
  C    -22.973047   27.384708   43.391616
  O    -24.008198   27.836119   44.346694
  H    -24.707722   27.051323   46.139238
  O    -22.324575   26.343218   46.278719
  H    -23.405889   24.756335   45.463860
  H    -21.568705   25.695320   43.674927
  H    -23.180045   25.215281   43.147153
  H    -23.365207   27.463612   42.371241
  H    -22.118277   28.059485   43.491571

 Multiplicity           Mult            ....    1
 Number of Electrons    NEL             ....   86
 Basis Dimension        Dim             ....  127

ORBITAL ENERGIES
----------------

  NO   OCC          E(Eh)            E(eV)
   0   2.0000     -19.136628      -520.7341
   1   2.0000     -19.135489      -520.7031
   2   2.0000     -19.132288      -520.6160
   3   2.0000     -10.278415      -279.6899
   4   2.0000     -10.243435      -278.7380
   5   2.0000     -10.227756      -278.3114
   6   2.0000     -10.222491      -278.1681
   7   2.0000     -10.220731      -278.1202
   8   2.0000     -10.195520      -277.4342
   9   2.0000     -10.182520      -277.0805
  10   2.0000     -10.181345      -277.0485
  11   2.0000      -1.049416       -28.5561
  12   2.0000      -1.016265       -27.6540
  13   2.0000      -0.986673       -26.8487
  14   2.0000      -0.789961       -21.4959
  15   2.0000      -0.778976       -21.1970
  16   2.0000      -0.747899       -20.3514
  17   2.0000      -0.719015       -19.5654
  18   2.0000      -0.616219       -16.7682
  19   2.0000      -0.602401       -16.3922
  20   2.0000      -0.594872       -16.1873
  21   2.0000      -0.568717       -15.4756
  22   2.0000      -0.523727       -14.2513
  23   2.0000      -0.503233       -13.6937
  24   2.0000      -0.486501       -13.2384
  25   2.0000      -0.482238       -13.1224
  26   2.0000      -0.455825       -12.4036
  27   2.0000      -0.442737       -12.0475
  28   2.0000      -0.424484       -11.5508
  29   2.0000      -0.420486       -11.4420
  30   2.0000      -0.400940       -10.9101
  31   2.0000      -0.383894       -10.4463
  32   2.0000      -0.379147       -10.3171
  33   2.0000      -0.371748       -10.1158
  34   2.0000      -0.363518        -9.8918
  35   2.0000      -0.352701        -9.5975
  36   2.0000      -0.345742        -9.4081
  37   2.0000      -0.311929        -8.4880
  38   2.0000      -0.307188        -8.3590
  39   2.0000      -0.298955        -8.1350
  40   2.0000      -0.261543        -7.1170
  41   2.0000      -0.243012        -6.6127
  42   2.0000      -0.239385        -6.5140
  43   0.0000       0.073618         2.0032
  44   0.0000       0.091239         2.4828
  45   0.0000       0.096026         2.6130
  46   0.0000       0.104251         2.8368
  47   0.0000       0.114461         3.1146

MULLIKEN ATOMIC CHARGES
-----------------------
   0 C :    0.288254
   1 C :   -0.262138
   2 C :   -0.300045
   3 C :   -0.001210
   4 O :   -0.505597
   5 H :    0.137831
   6 H :    0.138562
   7 H :    0.155604
   8 H :    0.139732
   9 H :    0.168848
  10 H :    0.152110
  11 H :    0.138826
  12 C :    0.003961
  13 H :    0.122494
  14 C :    0.090854
  15 C :   -0.321769
  16 C :    0.000691
  17 O :   -0.521624
  18 H :    0.172241
  19 O :   -0.520227
  20 H :    0.137385
  21 H :    0.147679
  22 H :    0.153968
  23 H :    0.137678
  24 H :    0.145894
Sum of atomic charges:   -0.0000000

LOEWDIN ATOMIC CHARGES
----------------------
   0 C :    0.177691
   1 C :   -0.225266
   2 C :   -0.215836
   3 C :   -0.026184
   4 O :   -0.312512
   5 H :    0.096064
   6 H :    0.110428
   7 H :    0.118739
   8 H :    0.113427
   9 H :    0.122505
  10 H :    0.107908
  11 H :    0.100679
  12 C :   -0.032491
  13 H :    0.090662
  14 C :    0.044671
  15 C :   -0.240999
  16 C :   -0.030575
  17 O :   -0.330320
  18 H :    0.125511
  19 O :   -0.331169
  20 H :    0.099955
  21 H :    0.116929
  22 H :    0.120585
  23 H :    0.099348
  24 H :    0.100251

  Mayer bond orders larger than 0.100000
B(  0-C ,  1-C ) :   0.9363 B(  0-C ,  4-O ) :   0.9280 B(  0-C ,  5-H ) :   0.9181
B(  0-C , 19-O ) :   0.8381 B(  1-C ,  2-C ) :   0.9558 B(  1-C ,  6-H ) :   0.9357
B(  1-C ,  7-H ) :   0.9288 B(  2-C ,  3-C ) :   0.9546 B(  2-C ,  8-H ) :   0.9451
B(  2-C ,  9-H ) :   0.9419 B(  3-C ,  4-O ) :   0.8371 B(  3-C , 10-H ) :   0.9348
B(  3-C , 11-H ) :   0.9399 B( 12-C , 13-H ) :   0.9155 B( 12-C , 14-C ) :   0.9276
B( 12-C , 17-O ) :   0.8641 B( 12-C , 18-H ) :   0.9304 B( 14-C , 15-C ) :   0.9351
B( 14-C , 19-O ) :   0.8461 B( 14-C , 20-H ) :   0.9227 B( 15-C , 16-C ) :   0.9413
B( 15-C , 21-H ) :   0.9324 B( 15-C , 22-H ) :   0.9345 B( 16-C , 17-O ) :   0.8656
B( 16-C , 23-H ) :   0.9323 B( 16-C , 24-H ) :   0.9280

FINAL SINGLE POINT ENERGY      -538.427606320067

DIPOLE MOMENT
-------------
                                X             Y             Z
Electronic contribution:     -1.77620      -1.87143       1.70420
Nuclear contribution   :      2.22655       1.71984      -2.38121
                        -----------------------------------------
Total Dipole Moment    :      0.45034      -0.15159      -0.67701
                        -----------------------------------------
Magnitude (a.u.)       :      0.82712
Magnitude (Debye)      :      2.10237

Rotational constants in cm-1:     0.076206     0.022057     0.021244
Rotational constants in MHz :  2284.587502   661.247409   636.886656

                             ****ORCA TERMINATED NORMALLY****
TOTAL RUN TIME: 0 days 0 hours 9 minutes 7 seconds 70 msec
