                         Program Version 4.2.0 -  RELEASE  -
|  1> # Test redundant internal optimization
|  2> #
|  3> ! RKS B3LYP  Opt TightSCF SmallPrint
|  4>
|  5> %basis
|  6>         Basis "6-31G"
|  7> end
|  8>
|  9> %geom
| 10> Constraints
| 11> { D 4  0  15  12  195.0   C } # D for Dihedral angle
| 12> { D 0  15  12  16  60.0   C } # D for Dihedral angle
| 13> { D 0  4  3  2   C } # D for Dihedral angle
| 14> { D 4  3  2  1   C } # D for Dihedral angle
| 15> { D 3  2  1  0   C } # D for Dihedral angle
| 16> { D 2  1  0  4   C } # D for Dihedral angle
| 17> { D 1  0  4  3   C } # D for Dihedral angle
| 18> { D 16  20  19  18   C } # D for Dihedral angle
| 19> { D 20  19  18  17   C } # D for Dihedral angle
| 20> { D 19  18  17  16   C } # D for Dihedral angle
| 21> { D 18  17  16  20   C } # D for Dihedral angle
| 22> { D 17  16  20  19   C } # D for Dihedral angle
| 23> { D 15  12  16  20   C } # D for Dihedral angle
| 24> end
| 25> end
| 26>
| 27>
| 28> #%pal
| 29> #nprocs 8
| 30> #end
| 31>
| 32> * xyz 0 1
| 33> C  -21.048   26.222   46.251
| 34> C  -20.361   27.558   45.944
| 35> C  -20.329   28.222   47.341
| 36> C  -20.110   27.022   48.296
| 37> O  -20.473   25.807   47.535
| 38> H  -20.833   25.428   45.533
| 39> H  -19.344   27.382   45.576
| 40> H  -20.898   28.157   45.201
| 41> H  -19.543   28.978   47.434
| 42> H  -21.289   28.710   47.548
| 43> H  -20.733   27.082   49.195
| 44> H  -19.064   26.913   48.597
| 45> C  -23.353   26.472   45.026
| 46> H  -24.424   26.602   45.226
| 47> H  -23.007   27.332   44.437
| 48> O  -22.586   26.394   46.375
| 49> C  -23.168   25.198   44.156
| 50> C  -23.781   23.968   44.834
| 51> C  -25.285   24.153   44.519
| 52> C  -25.273   24.786   43.105
| 53> O  -23.912   25.325   42.898
| 54> H  -22.114   25.093   43.895
| 55> H  -23.399   23.052   44.368
| 56> O  -23.488   23.901   46.358
| 57> H  -25.844   23.212   44.550
| 58> H  -25.740   24.836   45.246
| 59> H  -26.000   25.599   43.004
| 60> H  -25.452   24.051   42.317
| 61> H  -23.863   24.808   46.845
| 62> *
| 63>
| 64>                          ****END OF INPUT****
 Total Charge           Charge          ....    0
 Multiplicity           Mult            ....    1
 Number of Electrons    NEL             ....  102
FINAL SINGLE POINT ENERGY      -652.828275936489
FINAL SINGLE POINT ENERGY      -652.853371314413
FINAL SINGLE POINT ENERGY      -652.859777559014
FINAL SINGLE POINT ENERGY      -652.861882303225
FINAL SINGLE POINT ENERGY      -652.862587913715
FINAL SINGLE POINT ENERGY      -652.862840942022
FINAL SINGLE POINT ENERGY      -652.862891421256
FINAL SINGLE POINT ENERGY      -652.862897656991
                    ***********************HURRAY********************

CARTESIAN COORDINATES (ANGSTROEM)
---------------------------------
  C    -21.053275   26.202068   46.212623
  C    -20.308846   27.503856   45.930186
  C    -20.401516   28.227638   47.293651
  C    -20.312092   27.070033   48.307711
  O    -20.633700   25.837977   47.531903
  H    -20.821698   25.363168   45.555405
  H    -19.268108   27.273592   45.674302
  H    -20.743554   28.082394   45.109750
  H    -19.604328   28.964421   47.430416
  H    -21.364417   28.739605   47.375986
  H    -21.025233   27.156439   49.130667
  H    -19.305094   26.927114   48.709215
  C    -23.257049   26.484619   45.014479
  H    -24.285201   26.679673   45.327365
  H    -22.921875   27.331953   44.401749
  O    -22.503719   26.426034   46.274202
  C    -23.166509   25.202552   44.174277
  C    -23.780808   23.961397   44.842861
  C    -25.299506   24.189064   44.591757
  C    -25.332562   24.860552   43.204165
  O    -23.952971   25.383788   42.954081
  H    -22.140022   25.025753   43.842649
  H    -23.452969   23.065754   44.305769
  O    -23.419955   23.754172   46.222158
  H    -25.857037   23.249588   44.620790
  H    -25.702305   24.839376   45.375806
  H    -26.039310   25.693615   43.138626
  H    -25.545109   24.152837   42.397980
  H    -23.215233   24.613968   46.659473

 Multiplicity           Mult            ....    1
 Number of Electrons    NEL             ....  102
 Basis Dimension        Dim             ....  149

ORBITAL ENERGIES
----------------

  NO   OCC          E(Eh)            E(eV)
   0   2.0000     -19.159548      -521.3578
   1   2.0000     -19.148787      -521.0650
   2   2.0000     -19.143961      -520.9337
   3   2.0000     -19.119418      -520.2658
   4   2.0000     -10.288782      -279.9720
   5   2.0000     -10.239800      -278.6391
   6   2.0000     -10.237312      -278.5714
   7   2.0000     -10.234172      -278.4860
   8   2.0000     -10.230584      -278.3884
   9   2.0000     -10.230033      -278.3733
  10   2.0000     -10.194421      -277.4043
  11   2.0000     -10.191919      -277.3362
  12   2.0000     -10.182657      -277.0842
  13   2.0000      -1.063445       -28.9378
  14   2.0000      -1.028023       -27.9739
  15   2.0000      -1.005368       -27.3575
  16   2.0000      -0.995735       -27.0953
  17   2.0000      -0.793518       -21.5927
  18   2.0000      -0.775297       -21.0969
  19   2.0000      -0.768584       -20.9142
  20   2.0000      -0.739925       -20.1344
  21   2.0000      -0.682698       -18.5772
  22   2.0000      -0.610446       -16.6111
  23   2.0000      -0.605924       -16.4880
  24   2.0000      -0.598687       -16.2911
  25   2.0000      -0.571557       -15.5529
  26   2.0000      -0.531983       -14.4760
  27   2.0000      -0.523052       -14.2330
  28   2.0000      -0.498605       -13.5677
  29   2.0000      -0.489068       -13.3082
  30   2.0000      -0.470736       -12.8094
  31   2.0000      -0.462791       -12.5932
  32   2.0000      -0.451097       -12.2750
  33   2.0000      -0.429287       -11.6815
  34   2.0000      -0.424642       -11.5551
  35   2.0000      -0.420625       -11.4458
  36   2.0000      -0.407277       -11.0826
  37   2.0000      -0.395982       -10.7752
  38   2.0000      -0.381952       -10.3934
  39   2.0000      -0.373428       -10.1615
  40   2.0000      -0.363553        -9.8928
  41   2.0000      -0.362727        -9.8703
  42   2.0000      -0.351821        -9.5735
  43   2.0000      -0.337614        -9.1869
  44   2.0000      -0.324569        -8.8320
  45   2.0000      -0.316946        -8.6245
  46   2.0000      -0.297107        -8.0847
  47   2.0000      -0.274026        -7.4566
  48   2.0000      -0.266133        -7.2418
  49   2.0000      -0.251649        -6.8477
  50   2.0000      -0.241080        -6.5601
  51   0.0000       0.056739         1.5439
  52   0.0000       0.076012         2.0684
  53   0.0000       0.088855         2.4179
  54   0.0000       0.092751         2.5239
  55   0.0000       0.105256         2.8641

MULLIKEN ATOMIC CHARGES
-----------------------
   0 C :    0.285767
   1 C :   -0.269655
   2 C :   -0.297584
   3 C :   -0.005204
   4 O :   -0.501147
   5 H :    0.159828
   6 H :    0.151755
   7 H :    0.147200
   8 H :    0.145363
   9 H :    0.162194
  10 H :    0.157710
  11 H :    0.147052
  12 C :   -0.045471
  13 H :    0.162690
  14 H :    0.152841
  15 O :   -0.530704
  16 C :    0.049568
  17 C :    0.119187
  18 C :   -0.309007
  19 C :   -0.024289
  20 O :   -0.523297
  21 H :    0.152973
  22 H :    0.150918
  23 O :   -0.630239
  24 H :    0.155153
  25 H :    0.147429
  26 H :    0.144936
  27 H :    0.151877
  28 H :    0.392157
Sum of atomic charges:   -0.0000000

LOEWDIN ATOMIC CHARGES
----------------------
   0 C :    0.173537
   1 C :   -0.226055
   2 C :   -0.215859
   3 C :   -0.024668
   4 O :   -0.300844
   5 H :    0.104572
   6 H :    0.117652
   7 H :    0.116421
   8 H :    0.116108
   9 H :    0.119113
  10 H :    0.111377
  11 H :    0.105463
  12 C :   -0.054839
  13 H :    0.117152
  14 H :    0.105519
  15 O :   -0.338117
  16 C :    0.003283
  17 C :    0.041028
  18 C :   -0.239753
  19 C :   -0.033013
  20 O :   -0.324336
  21 H :    0.109035
  22 H :    0.108990
  23 O :   -0.425441
  24 H :    0.123171
  25 H :    0.111744
  26 H :    0.103140
  27 H :    0.107453
  28 H :    0.288166

  Mayer bond orders larger than 0.100000
B(  0-C ,  1-C ) :   0.9359 B(  0-C ,  4-O ) :   0.9383 B(  0-C ,  5-H ) :   0.9131
B(  0-C , 15-O ) :   0.7905 B(  1-C ,  2-C ) :   0.9507 B(  1-C ,  6-H ) :   0.9345
B(  1-C ,  7-H ) :   0.9342 B(  2-C ,  3-C ) :   0.9555 B(  2-C ,  8-H ) :   0.9446
B(  2-C ,  9-H ) :   0.9443 B(  3-C ,  4-O ) :   0.8293 B(  3-C , 10-H ) :   0.9346
B(  3-C , 11-H ) :   0.9395 B( 12-C , 13-H ) :   0.9376 B( 12-C , 14-H ) :   0.9210
B( 12-C , 15-O ) :   0.8159 B( 12-C , 16-C ) :   0.8811 B( 16-C , 17-C ) :   0.9036
B( 16-C , 20-O ) :   0.8465 B( 16-C , 21-H ) :   0.9289 B( 17-C , 18-C ) :   0.9013
B( 17-C , 22-H ) :   0.9338 B( 17-C , 23-O ) :   0.9373 B( 18-C , 19-C ) :   0.9408
B( 18-C , 24-H ) :   0.9432 B( 18-C , 25-H ) :   0.9429 B( 19-C , 20-O ) :   0.8309
B( 19-C , 26-H ) :   0.9336 B( 19-C , 27-H ) :   0.9382 B( 23-O , 28-H ) :   0.7279

FINAL SINGLE POINT ENERGY      -652.862898088304

DIPOLE MOMENT
-------------
                                X             Y             Z
Electronic contribution:      0.17414      -3.33016       0.09059
Nuclear contribution   :     -0.06488       4.57034      -0.40732
                        -----------------------------------------
Total Dipole Moment    :      0.10926       1.24018      -0.31673
                        -----------------------------------------
Magnitude (a.u.)       :      1.28464
Magnitude (Debye)      :      3.26530

Rotational constants in cm-1:     0.063169     0.013682     0.012268
Rotational constants in MHz :  1893.757430   410.164255   367.772104

                             ****ORCA TERMINATED NORMALLY****
TOTAL RUN TIME: 0 days 0 hours 29 minutes 51 seconds 922 msec
