                         Program Version 4.2.0 -  RELEASE  -
|  1> # Test redundant internal optimization
|  2> #
|  3> ! RKS B3LYP  Opt TightSCF SmallPrint
|  4>
|  5> %basis
|  6>         Basis "6-31G"
|  7> end
|  8>
|  9> %geom
| 10> Constraints
| 11> { D 4  0  15  12  270.0   C } # D for Dihedral angle
| 12> { D 0  15  12  16  270.0   C } # D for Dihedral angle
| 13> { D 0  4  3  2   C } # D for Dihedral angle
| 14> { D 4  3  2  1   C } # D for Dihedral angle
| 15> { D 3  2  1  0   C } # D for Dihedral angle
| 16> { D 2  1  0  4   C } # D for Dihedral angle
| 17> { D 1  0  4  3   C } # D for Dihedral angle
| 18> { D 16  20  19  18   C } # D for Dihedral angle
| 19> { D 20  19  18  17   C } # D for Dihedral angle
| 20> { D 19  18  17  16   C } # D for Dihedral angle
| 21> { D 18  17  16  20   C } # D for Dihedral angle
| 22> { D 17  16  20  19   C } # D for Dihedral angle
| 23> { D 15  12  16  20   C } # D for Dihedral angle
| 24> end
| 25> end
| 26>
| 27>
| 28> #%pal
| 29> #nprocs 8
| 30> #end
| 31>
| 32> * xyz 0 1
| 33> C  -21.048   26.222   46.251
| 34> C  -20.361   27.558   45.944
| 35> C  -20.329   28.222   47.341
| 36> C  -20.110   27.022   48.296
| 37> O  -20.473   25.807   47.535
| 38> H  -20.833   25.428   45.533
| 39> H  -19.344   27.382   45.576
| 40> H  -20.898   28.157   45.201
| 41> H  -19.543   28.978   47.434
| 42> H  -21.289   28.710   47.548
| 43> H  -20.733   27.082   49.195
| 44> H  -19.064   26.913   48.597
| 45> C  -23.420   25.119   46.072
| 46> H  -22.837   24.231   46.348
| 47> H  -24.346   25.117   46.661
| 48> O  -22.586   26.394   46.375
| 49> C  -23.812   24.999   44.573
| 50> C  -24.555   26.251   44.091
| 51> C  -23.387   27.241   43.865
| 52> C  -22.244   26.327   43.356
| 53> O  -22.612   24.945   43.733
| 54> H  -24.353   24.065   44.419
| 55> O  -25.286   25.953   42.754
| 56> H  -25.291   26.620   44.813
| 57> H  -23.635   28.035   43.154
| 58> H  -23.108   27.716   44.813
| 59> H  -21.276   26.577   43.804
| 60> H  -22.146   26.349   42.267
| 61> H  -24.567   25.582   42.015
| 62> *
| 63>
| 64>                          ****END OF INPUT****
 Total Charge           Charge          ....    0
 Multiplicity           Mult            ....    1
 Number of Electrons    NEL             ....  102
FINAL SINGLE POINT ENERGY      -652.834135961443
FINAL SINGLE POINT ENERGY      -652.858190694184
FINAL SINGLE POINT ENERGY      -652.863216697524
FINAL SINGLE POINT ENERGY      -652.866563700324
FINAL SINGLE POINT ENERGY      -652.866952805477
FINAL SINGLE POINT ENERGY      -652.867000286495
FINAL SINGLE POINT ENERGY      -652.867002917701
                    ***********************HURRAY********************

CARTESIAN COORDINATES (ANGSTROEM)
---------------------------------
  C    -21.004642   26.199828   46.284982
  C    -20.349942   27.564149   46.065443
  C    -20.358093   28.156731   47.495815
  C    -20.124095   26.913891   48.383667
  O    -20.448285   25.741340   47.535608
  H    -20.797720   25.429969   45.540325
  H    -19.323094   27.417406   45.710338
  H    -20.889997   28.179564   45.343530
  H    -19.589491   28.922095   47.639510
  H    -21.335975   28.601135   47.703388
  H    -20.762397   26.895498   49.270604
  H    -19.079301   26.800765   48.688409
  C    -23.274970   25.261867   46.090800
  H    -22.752721   24.345249   46.392483
  H    -24.169976   25.361100   46.714201
  O    -22.439863   26.416665   46.401385
  C    -23.696784   25.137066   44.625957
  C    -24.546245   26.274267   44.036386
  C    -23.455101   27.279487   43.584345
  C    -22.300261   26.360177   43.115923
  O    -22.558251   25.023168   43.707766
  H    -24.252196   24.194039   44.541600
  O    -25.354588   25.795787   42.925318
  H    -25.257403   26.700733   44.744404
  H    -23.827536   27.933771   42.791415
  H    -23.148813   27.883032   44.442114
  H    -21.318647   26.712540   43.442523
  H    -22.278945   26.227408   42.029000
  H    -24.790670   25.273274   42.316760

 Multiplicity           Mult            ....    1
 Number of Electrons    NEL             ....  102
 Basis Dimension        Dim             ....  149

ORBITAL ENERGIES
----------------

  NO   OCC          E(Eh)            E(eV)
   0   2.0000     -19.148423      -521.0551
   1   2.0000     -19.146202      -520.9946
   2   2.0000     -19.138412      -520.7827
   3   2.0000     -19.137706      -520.7634
   4   2.0000     -10.276113      -279.6273
   5   2.0000     -10.240834      -278.6673
   6   2.0000     -10.236059      -278.5373
   7   2.0000     -10.232751      -278.4473
   8   2.0000     -10.231962      -278.4258
   9   2.0000     -10.223882      -278.2060
  10   2.0000     -10.187192      -277.2076
  11   2.0000     -10.185719      -277.1675
  12   2.0000     -10.184531      -277.1352
  13   2.0000      -1.053541       -28.6683
  14   2.0000      -1.037340       -28.2275
  15   2.0000      -1.007852       -27.4250
  16   2.0000      -0.992942       -27.0193
  17   2.0000      -0.789921       -21.4948
  18   2.0000      -0.779078       -21.1998
  19   2.0000      -0.768862       -20.9218
  20   2.0000      -0.731182       -19.8965
  21   2.0000      -0.676928       -18.4202
  22   2.0000      -0.603802       -16.4303
  23   2.0000      -0.601786       -16.3754
  24   2.0000      -0.597678       -16.2637
  25   2.0000      -0.576637       -15.6911
  26   2.0000      -0.525769       -14.3069
  27   2.0000      -0.508080       -13.8256
  28   2.0000      -0.501586       -13.6488
  29   2.0000      -0.486732       -13.2446
  30   2.0000      -0.470186       -12.7944
  31   2.0000      -0.460978       -12.5439
  32   2.0000      -0.450155       -12.2494
  33   2.0000      -0.439382       -11.9562
  34   2.0000      -0.425121       -11.5681
  35   2.0000      -0.413556       -11.2534
  36   2.0000      -0.398678       -10.8486
  37   2.0000      -0.395221       -10.7545
  38   2.0000      -0.378657       -10.3038
  39   2.0000      -0.367780       -10.0078
  40   2.0000      -0.361797        -9.8450
  41   2.0000      -0.356007        -9.6874
  42   2.0000      -0.347191        -9.4475
  43   2.0000      -0.334084        -9.0909
  44   2.0000      -0.324292        -8.8244
  45   2.0000      -0.308875        -8.4049
  46   2.0000      -0.304697        -8.2912
  47   2.0000      -0.278083        -7.5670
  48   2.0000      -0.268446        -7.3048
  49   2.0000      -0.253773        -6.9055
  50   2.0000      -0.242051        -6.5866
  51   0.0000       0.061949         1.6857
  52   0.0000       0.083368         2.2685
  53   0.0000       0.087156         2.3716
  54   0.0000       0.101497         2.7619
  55   0.0000       0.105783         2.8785

MULLIKEN ATOMIC CHARGES
-----------------------
   0 C :    0.273620
   1 C :   -0.266494
   2 C :   -0.302214
   3 C :    0.000161
   4 O :   -0.510353
   5 H :    0.173559
   6 H :    0.146782
   7 H :    0.149048
   8 H :    0.141076
   9 H :    0.162391
  10 H :    0.148639
  11 H :    0.141263
  12 C :   -0.027038
  13 H :    0.158419
  14 H :    0.149046
  15 O :   -0.520715
  16 C :    0.073929
  17 C :    0.081764
  18 C :   -0.298508
  19 C :   -0.032255
  20 O :   -0.530554
  21 H :    0.156729
  22 O :   -0.602892
  23 H :    0.157024
  24 H :    0.154339
  25 H :    0.173283
  26 H :    0.142520
  27 H :    0.145181
  28 H :    0.362250
Sum of atomic charges:   -0.0000000

LOEWDIN ATOMIC CHARGES
----------------------
   0 C :    0.166975
   1 C :   -0.219020
   2 C :   -0.216344
   3 C :   -0.026491
   4 O :   -0.323232
   5 H :    0.112832
   6 H :    0.114728
   7 H :    0.116491
   8 H :    0.113318
   9 H :    0.119032
  10 H :    0.106287
  11 H :    0.102099
  12 C :   -0.040301
  13 H :    0.112623
  14 H :    0.114641
  15 O :   -0.333845
  16 C :    0.004673
  17 C :    0.039369
  18 C :   -0.242587
  19 C :   -0.038019
  20 O :   -0.334126
  21 H :    0.116513
  22 O :   -0.415695
  23 H :    0.118455
  24 H :    0.121670
  25 H :    0.126440
  26 H :    0.100843
  27 H :    0.100884
  28 H :    0.281787

  Mayer bond orders larger than 0.100000
B(  0-C ,  1-C ) :   0.9444 B(  0-C ,  4-O ) :   0.9078 B(  0-C ,  5-H ) :   0.9062
B(  0-C , 15-O ) :   0.8353 B(  1-C ,  2-C ) :   0.9532 B(  1-C ,  6-H ) :   0.9397
B(  1-C ,  7-H ) :   0.9333 B(  2-C ,  3-C ) :   0.9552 B(  2-C ,  8-H ) :   0.9453
B(  2-C ,  9-H ) :   0.9440 B(  3-C ,  4-O ) :   0.8385 B(  3-C , 10-H ) :   0.9354
B(  3-C , 11-H ) :   0.9403 B( 12-C , 13-H ) :   0.9197 B( 12-C , 14-H ) :   0.9292
B( 12-C , 15-O ) :   0.8712 B( 12-C , 16-C ) :   0.8874 B( 16-C , 17-C ) :   0.9080
B( 16-C , 20-O ) :   0.8565 B( 16-C , 21-H ) :   0.9175 B( 17-C , 18-C ) :   0.9210
B( 17-C , 22-O ) :   0.8907 B( 17-C , 23-H ) :   0.9351 B( 18-C , 19-C ) :   0.9458
B( 18-C , 24-H ) :   0.9363 B( 18-C , 25-H ) :   0.9172 B( 19-C , 20-O ) :   0.8390
B( 19-C , 26-H ) :   0.9275 B( 19-C , 27-H ) :   0.9375 B( 22-O , 28-H ) :   0.7969

FINAL SINGLE POINT ENERGY      -652.867001239729

DIPOLE MOMENT
-------------
                                X             Y             Z
Electronic contribution:     -2.74050      -4.87970      -1.06380
Nuclear contribution   :      3.26365       5.67246       1.04309
                        -----------------------------------------
Total Dipole Moment    :      0.52316       0.79276      -0.02071
                        -----------------------------------------
Magnitude (a.u.)       :      0.95005
Magnitude (Debye)      :      2.41484

Rotational constants in cm-1:     0.061701     0.014396     0.013653
Rotational constants in MHz :  1849.748968   431.573185   409.295248

                             ****ORCA TERMINATED NORMALLY****
TOTAL RUN TIME: 0 days 0 hours 45 minutes 43 seconds 186 msec
