                         Program Version 4.2.0 -  RELEASE  -
|  1> # Test redundant internal optimization
|  2> #
|  3> ! RKS B3LYP  Opt TightSCF SmallPrint
|  4>
|  5> %basis
|  6>         Basis "6-31G"
|  7> end
|  8>
|  9> %geom
| 10> Constraints
| 11> { D 4  0  15  12  300.0   C } # D for Dihedral angle
| 12> { D 0  15  12  16  195.0   C } # D for Dihedral angle
| 13> { D 0  4  3  2   C } # D for Dihedral angle
| 14> { D 4  3  2  1   C } # D for Dihedral angle
| 15> { D 3  2  1  0   C } # D for Dihedral angle
| 16> { D 2  1  0  4   C } # D for Dihedral angle
| 17> { D 1  0  4  3   C } # D for Dihedral angle
| 18> { D 16  20  19  18   C } # D for Dihedral angle
| 19> { D 20  19  18  17   C } # D for Dihedral angle
| 20> { D 19  18  17  16   C } # D for Dihedral angle
| 21> { D 18  17  16  20   C } # D for Dihedral angle
| 22> { D 17  16  20  19   C } # D for Dihedral angle
| 23> { D 15  12  16  20   C } # D for Dihedral angle
| 24> end
| 25> end
| 26>
| 27>
| 28> #%pal
| 29> #nprocs 8
| 30> #end
| 31>
| 32> * xyz 0 1
| 33> C  -21.048   26.222   46.251
| 34> C  -20.361   27.558   45.944
| 35> C  -20.329   28.222   47.341
| 36> C  -20.110   27.022   48.296
| 37> O  -20.473   25.807   47.535
| 38> H  -20.833   25.428   45.533
| 39> H  -19.344   27.382   45.576
| 40> H  -20.898   28.157   45.201
| 41> H  -19.543   28.978   47.434
| 42> H  -21.289   28.710   47.548
| 43> H  -20.733   27.082   49.195
| 44> H  -19.064   26.913   48.597
| 45> C  -23.362   25.116   46.798
| 46> H  -22.984   24.258   46.227
| 47> H  -23.211   24.911   47.866
| 48> O  -22.586   26.394   46.375
| 49> C  -24.891   25.232   46.550
| 50> C  -25.476   26.467   47.246
| 51> C  -25.076   27.597   46.267
| 52> C  -25.180   26.915   44.880
| 53> O  -25.164   25.456   45.127
| 54> H  -25.370   24.291   46.823
| 55> H  -26.566   26.380   47.311
| 56> O  -24.915   26.684   48.677
| 57> H  -25.721   28.478   46.349
| 58> H  -24.045   27.918   46.463
| 59> H  -24.347   27.177   44.220
| 60> H  -26.121   27.145   44.371
| 61> H  -23.824   26.773   48.636
| 62> *
| 63>
| 64>                          ****END OF INPUT****
 Total Charge           Charge          ....    0
 Multiplicity           Mult            ....    1
 Number of Electrons    NEL             ....  102
FINAL SINGLE POINT ENERGY      -652.838733552539
FINAL SINGLE POINT ENERGY      -652.863107952120
FINAL SINGLE POINT ENERGY      -652.867619674665
FINAL SINGLE POINT ENERGY      -652.868941064505
FINAL SINGLE POINT ENERGY      -652.869056463396
FINAL SINGLE POINT ENERGY      -652.869077116469
FINAL SINGLE POINT ENERGY      -652.869077304953
                    ***********************HURRAY********************

CARTESIAN COORDINATES (ANGSTROEM)
---------------------------------
  C    -21.069766   26.146497   46.275807
  C    -20.428237   27.496899   45.955798
  C    -20.388912   28.165601   47.348593
  C    -20.119406   26.979044   48.301668
  O    -20.468630   25.754623   47.533484
  H    -20.856150   25.333229   45.574196
  H    -19.417032   27.329362   45.569475
  H    -21.001288   28.062734   45.218289
  H    -19.617201   28.938022   47.422850
  H    -21.356382   28.628874   47.565503
  H    -20.722180   27.010381   49.213232
  H    -19.064384   26.885161   48.574109
  C    -23.232496   25.141873   46.799765
  H    -22.862815   24.277146   46.232125
  H    -23.061002   24.951907   47.865083
  O    -22.496287   26.334518   46.377362
  C    -24.724001   25.301353   46.531065
  C    -25.405275   26.480678   47.247726
  C    -25.128604   27.658475   46.263477
  C    -25.201655   26.969649   44.883895
  O    -25.047381   25.512104   45.126806
  H    -25.191996   24.350587   46.813472
  H    -26.475699   26.289083   47.345703
  O    -24.940919   26.708711   48.600412
  H    -25.858218   28.466188   46.373077
  H    -24.125516   28.046985   46.451329
  H    -24.407886   27.296958   44.206641
  H    -26.172174   27.106999   44.395992
  H    -24.022511   27.049357   48.570065

 Multiplicity           Mult            ....    1
 Number of Electrons    NEL             ....  102
 Basis Dimension        Dim             ....  149

ORBITAL ENERGIES
----------------

  NO   OCC          E(Eh)            E(eV)
   0   2.0000     -19.154510      -521.2207
   1   2.0000     -19.148437      -521.0555
   2   2.0000     -19.138762      -520.7922
   3   2.0000     -19.132027      -520.6089
   4   2.0000     -10.285057      -279.8706
   5   2.0000     -10.235058      -278.5101
   6   2.0000     -10.233525      -278.4684
   7   2.0000     -10.229126      -278.3487
   8   2.0000     -10.227855      -278.3141
   9   2.0000     -10.220669      -278.1186
  10   2.0000     -10.194361      -277.4027
  11   2.0000     -10.192964      -277.3646
  12   2.0000     -10.178099      -276.9602
  13   2.0000      -1.062809       -28.9205
  14   2.0000      -1.025954       -27.9176
  15   2.0000      -1.008562       -27.4444
  16   2.0000      -0.999025       -27.1848
  17   2.0000      -0.796296       -21.6683
  18   2.0000      -0.771870       -21.0037
  19   2.0000      -0.764764       -20.8103
  20   2.0000      -0.734624       -19.9901
  21   2.0000      -0.676288       -18.4027
  22   2.0000      -0.607296       -16.5254
  23   2.0000      -0.600612       -16.3435
  24   2.0000      -0.596619       -16.2348
  25   2.0000      -0.571342       -15.5470
  26   2.0000      -0.526994       -14.3402
  27   2.0000      -0.511602       -13.9214
  28   2.0000      -0.499539       -13.5931
  29   2.0000      -0.490755       -13.3541
  30   2.0000      -0.467187       -12.7128
  31   2.0000      -0.464935       -12.6515
  32   2.0000      -0.443883       -12.0787
  33   2.0000      -0.425168       -11.5694
  34   2.0000      -0.419528       -11.4159
  35   2.0000      -0.418025       -11.3750
  36   2.0000      -0.404816       -11.0156
  37   2.0000      -0.397755       -10.8235
  38   2.0000      -0.385362       -10.4862
  39   2.0000      -0.365506        -9.9459
  40   2.0000      -0.365058        -9.9337
  41   2.0000      -0.355325        -9.6689
  42   2.0000      -0.349208        -9.5024
  43   2.0000      -0.338089        -9.1999
  44   2.0000      -0.321798        -8.7566
  45   2.0000      -0.307637        -8.3712
  46   2.0000      -0.303907        -8.2697
  47   2.0000      -0.275464        -7.4958
  48   2.0000      -0.263245        -7.1633
  49   2.0000      -0.259759        -7.0684
  50   2.0000      -0.238165        -6.4808
  51   0.0000       0.050035         1.3615
  52   0.0000       0.085152         2.3171
  53   0.0000       0.088067         2.3964
  54   0.0000       0.097989         2.6664
  55   0.0000       0.105615         2.8739

MULLIKEN ATOMIC CHARGES
-----------------------
   0 C :    0.295864
   1 C :   -0.265001
   2 C :   -0.301658
   3 C :   -0.009030
   4 O :   -0.512960
   5 H :    0.152705
   6 H :    0.150924
   7 H :    0.157376
   8 H :    0.147187
   9 H :    0.151975
  10 H :    0.145258
  11 H :    0.149150
  12 C :   -0.011542
  13 H :    0.144677
  14 H :    0.154629
  15 O :   -0.539597
  16 C :    0.087889
  17 C :    0.083325
  18 C :   -0.310238
  19 C :   -0.004088
  20 O :   -0.522410
  21 H :    0.148887
  22 H :    0.162602
  23 O :   -0.606701
  24 H :    0.143361
  25 H :    0.161039
  26 H :    0.145018
  27 H :    0.139711
  28 H :    0.361645
Sum of atomic charges:    0.0000000

LOEWDIN ATOMIC CHARGES
----------------------
   0 C :    0.173780
   1 C :   -0.214093
   2 C :   -0.216833
   3 C :   -0.029734
   4 O :   -0.328594
   5 H :    0.100268
   6 H :    0.117637
   7 H :    0.124204
   8 H :    0.116371
   9 H :    0.112328
  10 H :    0.103677
  11 H :    0.106151
  12 C :   -0.047304
  13 H :    0.106867
  14 H :    0.108882
  15 O :   -0.335255
  16 C :    0.018754
  17 C :    0.037267
  18 C :   -0.242648
  19 C :   -0.025326
  20 O :   -0.324018
  21 H :    0.114993
  22 H :    0.116442
  23 O :   -0.411358
  24 H :    0.114689
  25 H :    0.118741
  26 H :    0.103958
  27 H :    0.100075
  28 H :    0.280079

  Mayer bond orders larger than 0.100000
B(  0-C ,  1-C ) :   0.9511 B(  0-C ,  4-O ) :   0.8970 B(  0-C ,  5-H ) :   0.9175
B(  0-C , 15-O ) :   0.8539 B(  1-C ,  2-C ) :   0.9544 B(  1-C ,  6-H ) :   0.9390
B(  1-C ,  7-H ) :   0.9359 B(  2-C ,  3-C ) :   0.9539 B(  2-C ,  8-H ) :   0.9447
B(  2-C ,  9-H ) :   0.9455 B(  3-C ,  4-O ) :   0.8375 B(  3-C , 10-H ) :   0.9355
B(  3-C , 11-H ) :   0.9400 B( 12-C , 13-H ) :   0.9213 B( 12-C , 14-H ) :   0.9047
B( 12-C , 15-O ) :   0.8155 B( 12-C , 16-C ) :   0.9148 B( 16-C , 17-C ) :   0.8861
B( 16-C , 20-O ) :   0.8771 B( 16-C , 21-H ) :   0.9288 B( 17-C , 18-C ) :   0.9313
B( 17-C , 22-H ) :   0.9360 B( 17-C , 23-O ) :   0.9022 B( 18-C , 19-C ) :   0.9453
B( 18-C , 24-H ) :   0.9415 B( 18-C , 25-H ) :   0.9274 B( 19-C , 20-O ) :   0.8384
B( 19-C , 26-H ) :   0.9324 B( 19-C , 27-H ) :   0.9376 B( 23-O , 28-H ) :   0.7925

FINAL SINGLE POINT ENERGY      -652.869075599208

DIPOLE MOMENT
-------------
                                X             Y             Z
Electronic contribution:     -2.36103      -4.54550       0.07051
Nuclear contribution   :      3.20292       5.53489      -0.23156
                        -----------------------------------------
Total Dipole Moment    :      0.84189       0.98939      -0.16106
                        -----------------------------------------
Magnitude (a.u.)       :      1.30905
Magnitude (Debye)      :      3.32734

Rotational constants in cm-1:     0.046006     0.016082     0.015334
Rotational constants in MHz :  1379.234127   482.122900   459.705995

                             ****ORCA TERMINATED NORMALLY****
TOTAL RUN TIME: 0 days 0 hours 16 minutes 9 seconds 43 msec
