                         Program Version 4.2.0 -  RELEASE  -
|  1> # Test redundant internal optimization
|  2> #
|  3> ! RKS B3LYP  Opt TightSCF SmallPrint
|  4>
|  5> %basis
|  6>         Basis "6-31G"
|  7> end
|  8>
|  9> %geom
| 10> Constraints
| 11> { D 4  0  15  12  240.0   C } # D for Dihedral angle
| 12> { D 0  15  12  16  165.0   C } # D for Dihedral angle
| 13> { D 0  4  3  2   C } # D for Dihedral angle
| 14> { D 4  3  2  1   C } # D for Dihedral angle
| 15> { D 3  2  1  0   C } # D for Dihedral angle
| 16> { D 2  1  0  4   C } # D for Dihedral angle
| 17> { D 1  0  4  3   C } # D for Dihedral angle
| 18> { D 16  20  19  18   C } # D for Dihedral angle
| 19> { D 20  19  18  17   C } # D for Dihedral angle
| 20> { D 19  18  17  16   C } # D for Dihedral angle
| 21> { D 18  17  16  20   C } # D for Dihedral angle
| 22> { D 17  16  20  19   C } # D for Dihedral angle
| 23> { D 15  12  16  20   C } # D for Dihedral angle
| 24> end
| 25> end
| 26>
| 27>
| 28> #%pal
| 29> #nprocs 8
| 30> #end
| 31>
| 32> * xyz 0 1
| 33> C  -21.048   26.222   46.251
| 34> C  -20.361   27.558   45.944
| 35> C  -20.329   28.222   47.341
| 36> C  -20.110   27.022   48.296
| 37> O  -20.473   25.807   47.535
| 38> H  -20.833   25.428   45.533
| 39> H  -19.344   27.382   45.576
| 40> H  -20.898   28.157   45.201
| 41> H  -19.543   28.978   47.434
| 42> H  -21.289   28.710   47.548
| 43> H  -20.733   27.082   49.195
| 44> H  -19.064   26.913   48.597
| 45> C  -23.430   25.483   45.442
| 46> H  -23.372   25.864   44.415
| 47> H  -23.038   24.457   45.450
| 48> O  -22.586   26.394   46.375
| 49> C  -24.926   25.420   45.857
| 50> C  -25.602   26.788   45.711
| 51> C  -25.867   26.846   44.188
| 52> C  -26.188   25.373   43.831
| 53> O  -25.674   24.548   44.945
| 54> H  -25.003   24.981   46.853
| 55> O  -26.938   26.808   46.502
| 56> H  -24.979   27.616   46.067
| 57> H  -26.683   27.527   43.925
| 58> H  -24.966   27.184   43.662
| 59> H  -25.711   25.054   42.898
| 60> H  -27.263   25.186   43.760
| 61> H  -27.580   25.986   46.163
| 62> *
| 63>
| 64>                          ****END OF INPUT****
 Total Charge           Charge          ....    0
 Multiplicity           Mult            ....    1
 Number of Electrons    NEL             ....  102
FINAL SINGLE POINT ENERGY      -652.836859028709
FINAL SINGLE POINT ENERGY      -652.860052460876
FINAL SINGLE POINT ENERGY      -652.863631769429
FINAL SINGLE POINT ENERGY      -652.864276027118
FINAL SINGLE POINT ENERGY      -652.864358194359
FINAL SINGLE POINT ENERGY      -652.864367516810
FINAL SINGLE POINT ENERGY      -652.864369546923
                    ***********************HURRAY********************

CARTESIAN COORDINATES (ANGSTROEM)
---------------------------------
  C    -21.100748   26.148565   46.194134
  C    -20.471375   27.513486   45.918211
  C    -20.570800   28.196762   47.302903
  C    -20.352376   27.023849   48.283581
  O    -20.601531   25.788465   47.496674
  H    -20.814614   25.345942   45.508400
  H    -19.423819   27.379670   45.623270
  H    -20.993724   28.059336   45.128977
  H    -19.833302   28.994141   47.433690
  H    -21.570029   28.623704   47.430687
  H    -21.038411   27.041042   49.133996
  H    -19.322955   26.959799   48.648587
  C    -23.311556   25.412917   45.352908
  H    -23.224847   25.740006   44.305860
  H    -22.951913   24.377739   45.419580
  O    -22.545667   26.286772   46.226711
  C    -24.762623   25.465371   45.823272
  C    -25.432307   26.843184   45.720144
  C    -25.808640   26.897311   44.217645
  C    -26.172952   25.427251   43.891113
  O    -25.585363   24.597452   44.973719
  H    -24.823046   25.077725   46.843544
  O    -26.610563   26.907399   46.570686
  H    -24.784810   27.656265   46.043888
  H    -26.638740   27.588672   44.052400
  H    -24.954056   27.237939   43.622973
  H    -25.772236   25.091961   42.929988
  H    -27.252954   25.249456   43.900417
  H    -27.105046   26.063816   46.497042

 Multiplicity           Mult            ....    1
 Number of Electrons    NEL             ....  102
 Basis Dimension        Dim             ....  149

ORBITAL ENERGIES
----------------

  NO   OCC          E(Eh)            E(eV)
   0   2.0000     -19.145326      -520.9708
   1   2.0000     -19.145068      -520.9638
   2   2.0000     -19.139009      -520.7989
   3   2.0000     -19.133813      -520.6575
   4   2.0000     -10.281558      -279.7754
   5   2.0000     -10.235423      -278.5200
   6   2.0000     -10.234256      -278.4883
   7   2.0000     -10.232861      -278.4503
   8   2.0000     -10.232151      -278.4310
   9   2.0000     -10.224257      -278.2162
  10   2.0000     -10.187926      -277.2276
  11   2.0000     -10.186913      -277.2000
  12   2.0000     -10.185896      -277.1723
  13   2.0000      -1.053958       -28.6797
  14   2.0000      -1.035846       -28.1868
  15   2.0000      -1.003670       -27.3113
  16   2.0000      -0.996871       -27.1262
  17   2.0000      -0.789514       -21.4838
  18   2.0000      -0.778811       -21.1925
  19   2.0000      -0.768163       -20.9028
  20   2.0000      -0.729736       -19.8571
  21   2.0000      -0.674994       -18.3675
  22   2.0000      -0.604229       -16.4419
  23   2.0000      -0.599140       -16.3034
  24   2.0000      -0.589965       -16.0538
  25   2.0000      -0.585462       -15.9312
  26   2.0000      -0.522093       -14.2069
  27   2.0000      -0.520365       -14.1598
  28   2.0000      -0.497606       -13.5405
  29   2.0000      -0.487634       -13.2692
  30   2.0000      -0.469790       -12.7836
  31   2.0000      -0.455732       -12.4011
  32   2.0000      -0.451893       -12.2966
  33   2.0000      -0.441721       -12.0198
  34   2.0000      -0.426796       -11.6137
  35   2.0000      -0.414022       -11.2661
  36   2.0000      -0.400945       -10.9103
  37   2.0000      -0.392006       -10.6670
  38   2.0000      -0.374286       -10.1848
  39   2.0000      -0.366618        -9.9762
  40   2.0000      -0.360699        -9.8151
  41   2.0000      -0.356143        -9.6911
  42   2.0000      -0.351807        -9.5731
  43   2.0000      -0.330520        -8.9939
  44   2.0000      -0.318344        -8.6626
  45   2.0000      -0.311290        -8.4706
  46   2.0000      -0.303422        -8.2565
  47   2.0000      -0.274015        -7.4563
  48   2.0000      -0.263893        -7.1809
  49   2.0000      -0.249028        -6.7764
  50   2.0000      -0.247373        -6.7314
  51   0.0000       0.063907         1.7390
  52   0.0000       0.073957         2.0125
  53   0.0000       0.094736         2.5779
  54   0.0000       0.098365         2.6767
  55   0.0000       0.104644         2.8475

MULLIKEN ATOMIC CHARGES
-----------------------
   0 C :    0.288080
   1 C :   -0.252728
   2 C :   -0.301084
   3 C :   -0.002106
   4 O :   -0.501561
   5 H :    0.142623
   6 H :    0.144007
   7 H :    0.143170
   8 H :    0.141998
   9 H :    0.163526
  10 H :    0.154255
  11 H :    0.141422
  12 C :   -0.005493
  13 H :    0.123501
  14 H :    0.154739
  15 O :   -0.527112
  16 C :    0.055717
  17 C :    0.094755
  18 C :   -0.304078
  19 C :   -0.029017
  20 O :   -0.527941
  21 H :    0.171671
  22 O :   -0.604205
  23 H :    0.172152
  24 H :    0.164336
  25 H :    0.144981
  26 H :    0.143467
  27 H :    0.147985
  28 H :    0.362939
Sum of atomic charges:   -0.0000000

LOEWDIN ATOMIC CHARGES
----------------------
   0 C :    0.177150
   1 C :   -0.220787
   2 C :   -0.216518
   3 C :   -0.026490
   4 O :   -0.315401
   5 H :    0.100380
   6 H :    0.113039
   7 H :    0.116862
   8 H :    0.114289
   9 H :    0.119515
  10 H :    0.109159
  11 H :    0.102271
  12 C :   -0.037382
  13 H :    0.088018
  14 H :    0.108179
  15 O :   -0.338310
  16 C :    0.018392
  17 C :    0.038930
  18 C :   -0.243178
  19 C :   -0.038025
  20 O :   -0.330594
  21 H :    0.121532
  22 O :   -0.414892
  23 H :    0.125533
  24 H :    0.127430
  25 H :    0.113087
  26 H :    0.102910
  27 H :    0.103289
  28 H :    0.281613

  Mayer bond orders larger than 0.100000
B(  0-C ,  1-C ) :   0.9432 B(  0-C ,  4-O ) :   0.9323 B(  0-C ,  5-H ) :   0.9203
B(  0-C , 15-O ) :   0.8339 B(  1-C ,  2-C ) :   0.9570 B(  1-C ,  6-H ) :   0.9366
B(  1-C ,  7-H ) :   0.9389 B(  2-C ,  3-C ) :   0.9541 B(  2-C ,  8-H ) :   0.9451
B(  2-C ,  9-H ) :   0.9434 B(  3-C ,  4-O ) :   0.8368 B(  3-C , 10-H ) :   0.9344
B(  3-C , 11-H ) :   0.9398 B( 12-C , 13-H ) :   0.9200 B( 12-C , 14-H ) :   0.9150
B( 12-C , 15-O ) :   0.8263 B( 12-C , 16-C ) :   0.9078 B( 16-C , 17-C ) :   0.9145
B( 16-C , 20-O ) :   0.8421 B( 16-C , 21-H ) :   0.9241 B( 17-C , 18-C ) :   0.9113
B( 17-C , 22-O ) :   0.8876 B( 17-C , 23-H ) :   0.9249 B( 18-C , 19-C ) :   0.9420
B( 18-C , 24-H ) :   0.9370 B( 18-C , 25-H ) :   0.9346 B( 19-C , 20-O ) :   0.8438
B( 19-C , 26-H ) :   0.9360 B( 19-C , 27-H ) :   0.9378 B( 22-O , 28-H ) :   0.7956

FINAL SINGLE POINT ENERGY      -652.864369573852

DIPOLE MOMENT
-------------
                                X             Y             Z
Electronic contribution:     -2.49770      -4.15854       2.28858
Nuclear contribution   :      3.03107       4.78446      -3.34001
                        -----------------------------------------
Total Dipole Moment    :      0.53338       0.62592      -1.05143
                        -----------------------------------------
Magnitude (a.u.)       :      1.33483
Magnitude (Debye)      :      3.39287

Rotational constants in cm-1:     0.057102     0.011962     0.011500
Rotational constants in MHz :  1711.882663   358.616096   344.746621

                             ****ORCA TERMINATED NORMALLY****
TOTAL RUN TIME: 0 days 0 hours 40 minutes 26 seconds 114 msec
