                         Program Version 4.2.0 -  RELEASE  -
|  1> # Test redundant internal optimization
|  2> #
|  3> ! RKS B3LYP  Opt TightSCF SmallPrint
|  4>
|  5> %basis
|  6>         Basis "6-31G"
|  7> end
|  8>
|  9> %geom
| 10> Constraints
| 11> { D 4  0  15  12  330.0   C } # D for Dihedral angle
| 12> { D 0  15  12  16  135.0   C } # D for Dihedral angle
| 13> { D 0  4  3  2   C } # D for Dihedral angle
| 14> { D 4  3  2  1   C } # D for Dihedral angle
| 15> { D 3  2  1  0   C } # D for Dihedral angle
| 16> { D 2  1  0  4   C } # D for Dihedral angle
| 17> { D 1  0  4  3   C } # D for Dihedral angle
| 18> { D 16  20  19  18   C } # D for Dihedral angle
| 19> { D 20  19  18  17   C } # D for Dihedral angle
| 20> { D 19  18  17  16   C } # D for Dihedral angle
| 21> { D 18  17  16  20   C } # D for Dihedral angle
| 22> { D 17  16  20  19   C } # D for Dihedral angle
| 23> { D 15  12  16  20   C } # D for Dihedral angle
| 24> end
| 25> end
| 26>
| 27>
| 28> #%pal
| 29> #nprocs 8
| 30> #end
| 31>
| 32> * xyz 0 1
| 33> C  -21.048   26.222   46.251
| 34> C  -20.361   27.558   45.944
| 35> C  -20.329   28.222   47.341
| 36> C  -20.110   27.022   48.296
| 37> O  -20.473   25.807   47.535
| 38> H  -20.833   25.428   45.533
| 39> H  -19.344   27.382   45.576
| 40> H  -20.898   28.157   45.201
| 41> H  -19.543   28.978   47.434
| 42> H  -21.289   28.710   47.548
| 43> H  -20.733   27.082   49.195
| 44> H  -19.064   26.913   48.597
| 45> C  -23.271   25.476   47.424
| 46> H  -23.796   24.663   46.906
| 47> H  -22.522   25.030   48.091
| 48> O  -22.586   26.394   46.375
| 49> C  -24.298   26.236   48.308
| 50> C  -25.477   26.750   47.474
| 51> C  -26.330   25.470   47.313
| 52> C  -26.124   24.738   48.663
| 53> O  -24.913   25.323   49.278
| 54> H  -23.778   27.006   48.879
| 55> O  -26.257   27.834   48.267
| 56> H  -25.170   27.180   46.514
| 57> H  -27.384   25.685   47.112
| 58> H  -25.947   24.865   46.483
| 59> H  -25.977   23.660   48.538
| 60> H  -26.951   24.904   49.358
| 61> H  -26.576   27.425   49.234
| 62> *
| 63>
| 64>                          ****END OF INPUT****
 Total Charge           Charge          ....    0
 Multiplicity           Mult            ....    1
 Number of Electrons    NEL             ....  102
FINAL SINGLE POINT ENERGY      -652.840143044100
FINAL SINGLE POINT ENERGY      -652.862826551852
FINAL SINGLE POINT ENERGY      -652.866463365579
FINAL SINGLE POINT ENERGY      -652.867077739575
FINAL SINGLE POINT ENERGY      -652.867166349840
FINAL SINGLE POINT ENERGY      -652.867183213202
                    ***********************HURRAY********************

CARTESIAN COORDINATES (ANGSTROEM)
---------------------------------
  C    -21.110316   26.174622   46.314355
  C    -20.606378   27.584960   46.010864
  C    -20.543224   28.207245   47.423391
  C    -20.118988   27.021790   48.316372
  O    -20.408750   25.794167   47.517615
  H    -20.862670   25.411341   45.570621
  H    -19.610487   27.521642   45.557812
  H    -21.273831   28.122280   45.333807
  H    -19.838234   29.041954   47.483135
  H    -21.533679   28.574080   47.707390
  H    -20.670887   26.966378   49.258015
  H    -19.045811   27.004777   48.525383
  C    -23.184267   25.343648   47.445822
  H    -23.674096   24.517902   46.913188
  H    -22.434663   24.928156   48.122930
  O    -22.555908   26.234095   46.473115
  C    -24.195960   26.166923   48.239697
  C    -25.349264   26.752906   47.413089
  C    -26.295975   25.533741   47.286768
  C    -26.123770   24.808469   48.645478
  O    -24.859015   25.315599   49.235474
  H    -23.673441   26.955630   48.789147
  O    -25.983124   27.857606   48.118670
  H    -25.022118   27.159846   46.458096
  H    -27.323138   25.858154   47.103635
  H    -25.983903   24.895333   46.453148
  H    -26.056432   23.720808   48.542726
  H    -26.925806   25.043750   49.352455
  H    -26.117866   27.602199   49.055802

 Multiplicity           Mult            ....    1
 Number of Electrons    NEL             ....  102
 Basis Dimension        Dim             ....  149

ORBITAL ENERGIES
----------------

  NO   OCC          E(Eh)            E(eV)
   0   2.0000     -19.150505      -521.1117
   1   2.0000     -19.143011      -520.9078
   2   2.0000     -19.142619      -520.8971
   3   2.0000     -19.133043      -520.6366
   4   2.0000     -10.281122      -279.7636
   5   2.0000     -10.232613      -278.4436
   6   2.0000     -10.231440      -278.4116
   7   2.0000     -10.230132      -278.3760
   8   2.0000     -10.229517      -278.3593
   9   2.0000     -10.223003      -278.1821
  10   2.0000     -10.188863      -277.2531
  11   2.0000     -10.187126      -277.2058
  12   2.0000     -10.185322      -277.1567
  13   2.0000      -1.056622       -28.7521
  14   2.0000      -1.033247       -28.1161
  15   2.0000      -1.001797       -27.2603
  16   2.0000      -0.994088       -27.0505
  17   2.0000      -0.792709       -21.5707
  18   2.0000      -0.777173       -21.1480
  19   2.0000      -0.766014       -20.8443
  20   2.0000      -0.731574       -19.9071
  21   2.0000      -0.670988       -18.2585
  22   2.0000      -0.603148       -16.4125
  23   2.0000      -0.601393       -16.3647
  24   2.0000      -0.591931       -16.1073
  25   2.0000      -0.576254       -15.6807
  26   2.0000      -0.522835       -14.2271
  27   2.0000      -0.510950       -13.9037
  28   2.0000      -0.498608       -13.5678
  29   2.0000      -0.490706       -13.3528
  30   2.0000      -0.472900       -12.8683
  31   2.0000      -0.454908       -12.3787
  32   2.0000      -0.452445       -12.3116
  33   2.0000      -0.434491       -11.8231
  34   2.0000      -0.420939       -11.4543
  35   2.0000      -0.413224       -11.2444
  36   2.0000      -0.399844       -10.8803
  37   2.0000      -0.389477       -10.5982
  38   2.0000      -0.374921       -10.2021
  39   2.0000      -0.364544        -9.9197
  40   2.0000      -0.360930        -9.8214
  41   2.0000      -0.356229        -9.6935
  42   2.0000      -0.351244        -9.5578
  43   2.0000      -0.340259        -9.2589
  44   2.0000      -0.324027        -8.8172
  45   2.0000      -0.308010        -8.3814
  46   2.0000      -0.295991        -8.0543
  47   2.0000      -0.273341        -7.4380
  48   2.0000      -0.265022        -7.2116
  49   2.0000      -0.259031        -7.0486
  50   2.0000      -0.241835        -6.5807
  51   0.0000       0.067124         1.8265
  52   0.0000       0.073201         1.9919
  53   0.0000       0.093993         2.5577
  54   0.0000       0.099715         2.7134
  55   0.0000       0.101829         2.7709

MULLIKEN ATOMIC CHARGES
-----------------------
   0 C :    0.301781
   1 C :   -0.261265
   2 C :   -0.302691
   3 C :   -0.018297
   4 O :   -0.512132
   5 H :    0.149787
   6 H :    0.145726
   7 H :    0.162366
   8 H :    0.145769
   9 H :    0.162545
  10 H :    0.151437
  11 H :    0.151183
  12 C :   -0.018456
  13 H :    0.128264
  14 H :    0.180640
  15 O :   -0.543320
  16 C :    0.063921
  17 C :    0.090192
  18 C :   -0.297915
  19 C :   -0.038364
  20 O :   -0.527457
  21 H :    0.152894
  22 O :   -0.605328
  23 H :    0.174002
  24 H :    0.159889
  25 H :    0.147382
  26 H :    0.150216
  27 H :    0.146404
  28 H :    0.360827
Sum of atomic charges:    0.0000000

LOEWDIN ATOMIC CHARGES
----------------------
   0 C :    0.180693
   1 C :   -0.215957
   2 C :   -0.217464
   3 C :   -0.031147
   4 O :   -0.321318
   5 H :    0.098844
   6 H :    0.114420
   7 H :    0.126840
   8 H :    0.116533
   9 H :    0.118092
  10 H :    0.106345
  11 H :    0.107288
  12 C :   -0.044914
  13 H :    0.094218
  14 H :    0.123653
  15 O :   -0.344122
  16 C :    0.015247
  17 C :    0.037336
  18 C :   -0.240976
  19 C :   -0.040632
  20 O :   -0.332204
  21 H :    0.110919
  22 O :   -0.416907
  23 H :    0.126958
  24 H :    0.125744
  25 H :    0.115071
  26 H :    0.105079
  27 H :    0.102062
  28 H :    0.280299

  Mayer bond orders larger than 0.100000
B(  0-C ,  1-C ) :   0.9437 B(  0-C ,  4-O ) :   0.9086 B(  0-C ,  5-H ) :   0.9243
B(  0-C , 15-O ) :   0.8409 B(  1-C ,  2-C ) :   0.9535 B(  1-C ,  6-H ) :   0.9376
B(  1-C ,  7-H ) :   0.9351 B(  2-C ,  3-C ) :   0.9553 B(  2-C ,  8-H ) :   0.9443
B(  2-C ,  9-H ) :   0.9424 B(  3-C ,  4-O ) :   0.8264 B(  3-C , 10-H ) :   0.9342
B(  3-C , 11-H ) :   0.9403 B( 12-C , 13-H ) :   0.9291 B( 12-C , 14-H ) :   0.9047
B( 12-C , 15-O ) :   0.8174 B( 12-C , 16-C ) :   0.8993 B( 16-C , 17-C ) :   0.9128
B( 16-C , 20-O ) :   0.8425 B( 16-C , 21-H ) :   0.9271 B( 17-C , 18-C ) :   0.9147
B( 17-C , 22-O ) :   0.8866 B( 17-C , 23-H ) :   0.9250 B( 18-C , 19-C ) :   0.9425
B( 18-C , 24-H ) :   0.9381 B( 18-C , 25-H ) :   0.9341 B( 19-C , 20-O ) :   0.8460
B( 19-C , 26-H ) :   0.9343 B( 19-C , 27-H ) :   0.9373 B( 22-O , 28-H ) :   0.7972

FINAL SINGLE POINT ENERGY      -652.867184272248

DIPOLE MOMENT
-------------
                                X             Y             Z
Electronic contribution:     -0.78377      -1.33867       0.90484
Nuclear contribution   :      1.04029       1.30258      -1.11927
                        -----------------------------------------
Total Dipole Moment    :      0.25653      -0.03609      -0.21443
                        -----------------------------------------
Magnitude (a.u.)       :      0.33629
Magnitude (Debye)      :      0.85477

Rotational constants in cm-1:     0.053592     0.013632     0.013035
Rotational constants in MHz :  1606.639436   408.674493   390.775238

                             ****ORCA TERMINATED NORMALLY****
TOTAL RUN TIME: 0 days 1 hours 2 minutes 59 seconds 768 msec
