                         Program Version 4.2.0 -  RELEASE  -
|  1> # Test redundant internal optimization
|  2> #
|  3> ! RKS B3LYP  Opt TightSCF SmallPrint
|  4>
|  5> %basis
|  6>         Basis "6-31G"
|  7> end
|  8>
|  9> %geom
| 10> Constraints
| 11> { D 4  0  15  12  285.0   C } # D for Dihedral angle
| 12> { D 0  15  12  16  165.0   C } # D for Dihedral angle
| 13> { D 0  4  3  2   C } # D for Dihedral angle
| 14> { D 4  3  2  1   C } # D for Dihedral angle
| 15> { D 3  2  1  0   C } # D for Dihedral angle
| 16> { D 2  1  0  4   C } # D for Dihedral angle
| 17> { D 1  0  4  3   C } # D for Dihedral angle
| 18> { D 16  20  19  18   C } # D for Dihedral angle
| 19> { D 20  19  18  17   C } # D for Dihedral angle
| 20> { D 19  18  17  16   C } # D for Dihedral angle
| 21> { D 18  17  16  20   C } # D for Dihedral angle
| 22> { D 17  16  20  19   C } # D for Dihedral angle
| 23> { D 15  12  16  20   C } # D for Dihedral angle
| 24> end
| 25> end
| 26>
| 27>
| 28> #%pal
| 29> #nprocs 8
| 30> #end
| 31>
| 32> * xyz 0 1
| 33> C  -21.048   26.222   46.251
| 34> C  -20.361   27.558   45.944
| 35> C  -20.329   28.222   47.341
| 36> C  -20.110   27.022   48.296
| 37> O  -20.473   25.807   47.535
| 38> H  -20.833   25.428   45.533
| 39> H  -19.344   27.382   45.576
| 40> H  -20.898   28.157   45.201
| 41> H  -19.543   28.978   47.434
| 42> H  -21.289   28.710   47.548
| 43> H  -20.733   27.082   49.195
| 44> H  -19.064   26.913   48.597
| 45> C  -23.396   25.070   46.435
| 46> H  -23.429   24.620   45.435
| 47> H  -22.915   24.356   47.116
| 48> O  -22.586   26.394   46.375
| 49> C  -24.855   25.280   46.925
| 50> C  -24.890   25.990   48.284
| 51> C  -24.652   27.463   47.874
| 52> C  -25.384   27.572   46.513
| 53> O  -25.572   26.189   46.025
| 54> H  -25.382   24.325   46.901
| 55> H  -25.877   25.872   48.744
| 56> O  -23.819   25.461   49.276
| 57> H  -25.034   28.176   48.611
| 58> H  -23.578   27.651   47.751
| 59> H  -24.810   28.140   45.772
| 60> H  -26.378   28.018   46.608
| 61> H  -22.822   25.570   48.835
| 62> *
| 63>
| 64>                          ****END OF INPUT****
 Total Charge           Charge          ....    0
 Multiplicity           Mult            ....    1
 Number of Electrons    NEL             ....  102
FINAL SINGLE POINT ENERGY      -652.839659033669
FINAL SINGLE POINT ENERGY      -652.863636454759
FINAL SINGLE POINT ENERGY      -652.867706351949
FINAL SINGLE POINT ENERGY      -652.868955597946
FINAL SINGLE POINT ENERGY      -652.869088430208
FINAL SINGLE POINT ENERGY      -652.869114989877
FINAL SINGLE POINT ENERGY      -652.869115919945
                    ***********************HURRAY********************

CARTESIAN COORDINATES (ANGSTROEM)
---------------------------------
  C    -21.079145   26.153565   46.239630
  C    -20.409524   27.493090   45.924622
  C    -20.394638   28.170479   47.314004
  C    -20.166093   26.989236   48.283452
  O    -20.513570   25.759587   47.518658
  H    -20.854145   25.339458   45.543618
  H    -19.392222   27.308732   45.563218
  H    -20.960415   28.059646   45.171334
  H    -19.612280   28.930707   47.402322
  H    -21.358716   28.652227   47.503796
  H    -20.791676   27.041029   49.178846
  H    -19.120413   26.881987   48.584287
  C    -23.264212   25.101550   46.414165
  H    -23.283938   24.639504   45.418709
  H    -22.779649   24.411630   47.116986
  O    -22.501008   26.350875   46.336054
  C    -24.690877   25.359219   46.878317
  C    -24.815004   26.007414   48.269338
  C    -24.688282   27.524359   47.929254
  C    -25.395239   27.625349   46.560740
  O    -25.455277   26.244035   46.010780
  H    -25.204122   24.390277   46.851463
  H    -25.793381   25.782018   48.699137
  O    -23.860925   25.522969   49.243677
  H    -25.155700   28.153758   48.692533
  H    -23.631436   27.781713   47.843995
  H    -24.854918   28.258719   45.851467
  H    -26.428538   27.975239   46.644901
  H    -22.948655   25.719628   48.941694

 Multiplicity           Mult            ....    1
 Number of Electrons    NEL             ....  102
 Basis Dimension        Dim             ....  149

ORBITAL ENERGIES
----------------

  NO   OCC          E(Eh)            E(eV)
   0   2.0000     -19.155854      -521.2573
   1   2.0000     -19.152577      -521.1681
   2   2.0000     -19.135359      -520.6996
   3   2.0000     -19.131845      -520.6040
   4   2.0000     -10.287599      -279.9398
   5   2.0000     -10.236126      -278.5392
   6   2.0000     -10.234206      -278.4869
   7   2.0000     -10.231046      -278.4009
   8   2.0000     -10.230260      -278.3795
   9   2.0000     -10.219828      -278.0956
  10   2.0000     -10.195309      -277.4285
  11   2.0000     -10.194278      -277.4004
  12   2.0000     -10.176645      -276.9206
  13   2.0000      -1.065711       -28.9995
  14   2.0000      -1.024340       -27.8737
  15   2.0000      -1.006816       -27.3969
  16   2.0000      -1.000954       -27.2373
  17   2.0000      -0.797696       -21.7064
  18   2.0000      -0.772540       -21.0219
  19   2.0000      -0.764531       -20.8040
  20   2.0000      -0.736176       -20.0324
  21   2.0000      -0.677675       -18.4405
  22   2.0000      -0.608559       -16.5597
  23   2.0000      -0.600586       -16.3428
  24   2.0000      -0.596467       -16.2307
  25   2.0000      -0.575464       -15.6592
  26   2.0000      -0.526842       -14.3361
  27   2.0000      -0.511482       -13.9181
  28   2.0000      -0.504397       -13.7253
  29   2.0000      -0.488761       -13.2999
  30   2.0000      -0.472884       -12.8678
  31   2.0000      -0.466046       -12.6818
  32   2.0000      -0.439027       -11.9465
  33   2.0000      -0.430539       -11.7155
  34   2.0000      -0.419555       -11.4167
  35   2.0000      -0.416778       -11.3411
  36   2.0000      -0.403162       -10.9706
  37   2.0000      -0.400643       -10.9021
  38   2.0000      -0.381946       -10.3933
  39   2.0000      -0.369490       -10.0543
  40   2.0000      -0.366547        -9.9742
  41   2.0000      -0.355285        -9.6678
  42   2.0000      -0.346655        -9.4330
  43   2.0000      -0.341813        -9.3012
  44   2.0000      -0.323763        -8.8100
  45   2.0000      -0.309819        -8.4306
  46   2.0000      -0.302478        -8.2309
  47   2.0000      -0.278728        -7.5846
  48   2.0000      -0.262684        -7.1480
  49   2.0000      -0.259122        -7.0511
  50   2.0000      -0.237873        -6.4728
  51   0.0000       0.055517         1.5107
  52   0.0000       0.081975         2.2307
  53   0.0000       0.086868         2.3638
  54   0.0000       0.096404         2.6233
  55   0.0000       0.100499         2.7347

MULLIKEN ATOMIC CHARGES
-----------------------
   0 C :    0.283403
   1 C :   -0.260235
   2 C :   -0.305239
   3 C :   -0.014307
   4 O :   -0.514940
   5 H :    0.148977
   6 H :    0.150794
   7 H :    0.161329
   8 H :    0.147721
   9 H :    0.163084
  10 H :    0.144864
  11 H :    0.151162
  12 C :   -0.028423
  13 H :    0.149192
  14 H :    0.157556
  15 O :   -0.526338
  16 C :    0.082656
  17 C :    0.087137
  18 C :   -0.312279
  19 C :   -0.006126
  20 O :   -0.520138
  21 H :    0.151476
  22 H :    0.159598
  23 O :   -0.615358
  24 H :    0.141212
  25 H :    0.165457
  26 H :    0.145136
  27 H :    0.141462
  28 H :    0.371167
Sum of atomic charges:   -0.0000000

LOEWDIN ATOMIC CHARGES
----------------------
   0 C :    0.170219
   1 C :   -0.213282
   2 C :   -0.216713
   3 C :   -0.031432
   4 O :   -0.335044
   5 H :    0.100157
   6 H :    0.117646
   7 H :    0.126796
   8 H :    0.116876
   9 H :    0.116123
  10 H :    0.101720
  11 H :    0.107390
  12 C :   -0.053217
  13 H :    0.107141
  14 H :    0.110652
  15 O :   -0.328968
  16 C :    0.018306
  17 C :    0.039850
  18 C :   -0.243375
  19 C :   -0.025656
  20 O :   -0.323445
  21 H :    0.115826
  22 H :    0.115327
  23 O :   -0.412946
  24 H :    0.113993
  25 H :    0.118073
  26 H :    0.104676
  27 H :    0.101030
  28 H :    0.282276

  Mayer bond orders larger than 0.100000
B(  0-C ,  1-C ) :   0.9476 B(  0-C ,  4-O ) :   0.8947 B(  0-C ,  5-H ) :   0.9178
B(  0-C , 15-O ) :   0.8646 B(  1-C ,  2-C ) :   0.9544 B(  1-C ,  6-H ) :   0.9391
B(  1-C ,  7-H ) :   0.9355 B(  2-C ,  3-C ) :   0.9535 B(  2-C ,  8-H ) :   0.9443
B(  2-C ,  9-H ) :   0.9403 B(  3-C ,  4-O ) :   0.8358 B(  3-C , 10-H ) :   0.9322
B(  3-C , 11-H ) :   0.9401 B( 12-C , 13-H ) :   0.9228 B( 12-C , 14-H ) :   0.8973
B( 12-C , 15-O ) :   0.8168 B( 12-C , 16-C ) :   0.9202 B( 16-C , 17-C ) :   0.8892
B( 16-C , 20-O ) :   0.8804 B( 16-C , 21-H ) :   0.9267 B( 17-C , 18-C ) :   0.9247
B( 17-C , 22-H ) :   0.9375 B( 17-C , 23-O ) :   0.9062 B( 18-C , 19-C ) :   0.9482
B( 18-C , 24-H ) :   0.9417 B( 18-C , 25-H ) :   0.9244 B( 19-C , 20-O ) :   0.8368
B( 19-C , 26-H ) :   0.9325 B( 19-C , 27-H ) :   0.9378 B( 23-O , 28-H ) :   0.7755

FINAL SINGLE POINT ENERGY      -652.869114315666

DIPOLE MOMENT
-------------
                                X             Y             Z
Electronic contribution:     -2.48387      -4.52941      -0.66026
Nuclear contribution   :      3.40113       5.40413       0.39282
                        -----------------------------------------
Total Dipole Moment    :      0.91726       0.87472      -0.26744
                        -----------------------------------------
Magnitude (a.u.)       :      1.29539
Magnitude (Debye)      :      3.29261

Rotational constants in cm-1:     0.044092     0.017632     0.016761
Rotational constants in MHz :  1321.839420   528.606878   502.490838

                             ****ORCA TERMINATED NORMALLY****
TOTAL RUN TIME: 0 days 0 hours 20 minutes 6 seconds 594 msec
