                         Program Version 4.2.0 -  RELEASE  -
|  1> # Test redundant internal optimization
|  2> #
|  3> ! RKS B3LYP  Opt TightSCF SmallPrint
|  4>
|  5> %basis
|  6>         Basis "6-31G"
|  7> end
|  8>
|  9> %geom
| 10> Constraints
| 11> { D 4  0  15  12  0.0   C } # D for Dihedral angle
| 12> { D 0  15  12  16  210.0   C } # D for Dihedral angle
| 13> { D 0  4  3  2   C } # D for Dihedral angle
| 14> { D 4  3  2  1   C } # D for Dihedral angle
| 15> { D 3  2  1  0   C } # D for Dihedral angle
| 16> { D 2  1  0  4   C } # D for Dihedral angle
| 17> { D 1  0  4  3   C } # D for Dihedral angle
| 18> { D 16  20  19  18   C } # D for Dihedral angle
| 19> { D 20  19  18  17   C } # D for Dihedral angle
| 20> { D 19  18  17  16   C } # D for Dihedral angle
| 21> { D 18  17  16  20   C } # D for Dihedral angle
| 22> { D 17  16  20  19   C } # D for Dihedral angle
| 23> { D 15  12  16  20   C } # D for Dihedral angle
| 24> end
| 25> end
| 26>
| 27>
| 28> #%pal
| 29> #nprocs 8
| 30> #end
| 31>
| 32> * xyz 0 1
| 33> C  -21.048   26.222   46.251
| 34> C  -20.361   27.558   45.944
| 35> C  -20.329   28.222   47.341
| 36> C  -20.110   27.022   48.296
| 37> O  -20.473   25.807   47.535
| 38> H  -20.833   25.428   45.533
| 39> H  -19.344   27.382   45.576
| 40> H  -20.898   28.157   45.201
| 41> H  -19.543   28.978   47.434
| 42> H  -21.289   28.710   47.548
| 43> H  -20.733   27.082   49.195
| 44> H  -19.064   26.913   48.597
| 45> C  -23.172   26.101   47.783
| 46> H  -22.547   25.353   48.287
| 47> H  -23.176   27.012   48.395
| 48> O  -22.586   26.394   46.375
| 49> C  -24.628   25.562   47.728
| 50> C  -25.214   25.394   49.134
| 51> C  -25.602   26.849   49.488
| 52> C  -26.058   27.433   48.128
| 53> O  -25.512   26.540   47.083
| 54> H  -24.652   24.657   47.117
| 55> H  -26.103   24.755   49.098
| 56> O  -24.208   24.776   50.144
| 57> H  -26.385   26.906   50.251
| 58> H  -24.726   27.391   49.867
| 59> H  -25.685   28.449   47.961
| 60> H  -27.146   27.432   48.017
| 61> H  -23.309   25.400   50.198
| 62> *
| 63>
| 64>                          ****END OF INPUT****
 Total Charge           Charge          ....    0
 Multiplicity           Mult            ....    1
 Number of Electrons    NEL             ....  102
FINAL SINGLE POINT ENERGY      -652.825537566881
FINAL SINGLE POINT ENERGY      -652.848730991650
FINAL SINGLE POINT ENERGY      -652.853228973862
FINAL SINGLE POINT ENERGY      -652.853908397918
FINAL SINGLE POINT ENERGY      -652.854025572186
FINAL SINGLE POINT ENERGY      -652.854051039179
FINAL SINGLE POINT ENERGY      -652.854054427666
                    ***********************HURRAY********************

CARTESIAN COORDINATES (ANGSTROEM)
---------------------------------
  C    -21.110206   26.219805   46.343216
  C    -20.487861   27.554766   45.932282
  C    -20.250399   28.228156   47.303910
  C    -19.882813   27.040915   48.220860
  O    -20.358103   25.819926   47.511128
  H    -20.998040   25.414774   45.613955
  H    -19.539946   27.370041   45.413135
  H    -21.149891   28.126736   45.279113
  H    -19.460559   28.984958   47.271799
  H    -21.171266   28.714009   47.643092
  H    -20.362249   27.085691   49.203140
  H    -18.803829   26.921404   48.353877
  C    -23.075547   26.143371   47.902699
  H    -22.479402   25.384024   48.420559
  H    -23.044387   27.076568   48.486770
  O    -22.542381   26.384242   46.574379
  C    -24.510921   25.645795   47.750736
  C    -25.225058   25.390015   49.089107
  C    -25.721660   26.819058   49.466580
  C    -26.067669   27.430702   48.091378
  O    -25.375378   26.605978   47.070019
  H    -24.493480   24.756622   47.114300
  H    -26.075675   24.726018   48.921403
  O    -24.441547   24.719966   50.104880
  H    -26.575117   26.791467   50.149601
  H    -24.910157   27.370360   49.959893
  H    -25.740872   28.470923   47.992104
  H    -27.139121   27.377549   47.873455
  H    -23.740467   25.311159   50.447628

 Multiplicity           Mult            ....    1
 Number of Electrons    NEL             ....  102
 Basis Dimension        Dim             ....  149

ORBITAL ENERGIES
----------------

  NO   OCC          E(Eh)            E(eV)
   0   2.0000     -19.151982      -521.1519
   1   2.0000     -19.147991      -521.0433
   2   2.0000     -19.134056      -520.6641
   3   2.0000     -19.132113      -520.6113
   4   2.0000     -10.277803      -279.6732
   5   2.0000     -10.242403      -278.7100
   6   2.0000     -10.235119      -278.5118
   7   2.0000     -10.227436      -278.3027
   8   2.0000     -10.226310      -278.2720
   9   2.0000     -10.226036      -278.2646
  10   2.0000     -10.192903      -277.3630
  11   2.0000     -10.192421      -277.3499
  12   2.0000     -10.184762      -277.1415
  13   2.0000      -1.054938       -28.7063
  14   2.0000      -1.031080       -28.0571
  15   2.0000      -1.012469       -27.5507
  16   2.0000      -0.990000       -26.9393
  17   2.0000      -0.791771       -21.5452
  18   2.0000      -0.779584       -21.2136
  19   2.0000      -0.767411       -20.8823
  20   2.0000      -0.733149       -19.9500
  21   2.0000      -0.677438       -18.4340
  22   2.0000      -0.608299       -16.5526
  23   2.0000      -0.605112       -16.4659
  24   2.0000      -0.593963       -16.1626
  25   2.0000      -0.568789       -15.4775
  26   2.0000      -0.527792       -14.3620
  27   2.0000      -0.507293       -13.8041
  28   2.0000      -0.498873       -13.5750
  29   2.0000      -0.498131       -13.5548
  30   2.0000      -0.470554       -12.8044
  31   2.0000      -0.457085       -12.4379
  32   2.0000      -0.447561       -12.1788
  33   2.0000      -0.428034       -11.6474
  34   2.0000      -0.423820       -11.5327
  35   2.0000      -0.414595       -11.2817
  36   2.0000      -0.410938       -11.1822
  37   2.0000      -0.398163       -10.8346
  38   2.0000      -0.376268       -10.2388
  39   2.0000      -0.370956       -10.0942
  40   2.0000      -0.361447        -9.8355
  41   2.0000      -0.352316        -9.5870
  42   2.0000      -0.348835        -9.4923
  43   2.0000      -0.339764        -9.2455
  44   2.0000      -0.325019        -8.8442
  45   2.0000      -0.310842        -8.4584
  46   2.0000      -0.302888        -8.2420
  47   2.0000      -0.269153        -7.3240
  48   2.0000      -0.264568        -7.1993
  49   2.0000      -0.249491        -6.7890
  50   2.0000      -0.234130        -6.3710
  51   0.0000       0.049641         1.3508
  52   0.0000       0.070832         1.9274
  53   0.0000       0.088822         2.4170
  54   0.0000       0.094154         2.5621
  55   0.0000       0.106000         2.8844

MULLIKEN ATOMIC CHARGES
-----------------------
   0 C :    0.295330
   1 C :   -0.254087
   2 C :   -0.310827
   3 C :   -0.015138
   4 O :   -0.511801
   5 H :    0.159213
   6 H :    0.143134
   7 H :    0.166062
   8 H :    0.147949
   9 H :    0.156294
  10 H :    0.136150
  11 H :    0.153466
  12 C :   -0.011328
  13 H :    0.162450
  14 H :    0.106583
  15 O :   -0.527069
  16 C :    0.090202
  17 C :    0.079956
  18 C :   -0.322707
  19 C :   -0.012573
  20 O :   -0.503096
  21 H :    0.163334
  22 H :    0.170122
  23 O :   -0.597995
  24 H :    0.158259
  25 H :    0.130965
  26 H :    0.143255
  27 H :    0.149190
  28 H :    0.354706
Sum of atomic charges:   -0.0000000

LOEWDIN ATOMIC CHARGES
----------------------
   0 C :    0.182161
   1 C :   -0.220216
   2 C :   -0.219917
   3 C :   -0.032711
   4 O :   -0.318864
   5 H :    0.106974
   6 H :    0.113019
   7 H :    0.128463
   8 H :    0.117619
   9 H :    0.114534
  10 H :    0.098495
  11 H :    0.108286
  12 C :   -0.052454
  13 H :    0.113535
  14 H :    0.080244
  15 O :   -0.329357
  16 C :    0.019785
  17 C :    0.034053
  18 C :   -0.243217
  19 C :   -0.031083
  20 O :   -0.313280
  21 H :    0.120221
  22 H :    0.120519
  23 O :   -0.406176
  24 H :    0.122202
  25 H :    0.102635
  26 H :    0.102120
  27 H :    0.105401
  28 H :    0.277011

  Mayer bond orders larger than 0.100000
B(  0-C ,  1-C ) :   0.9296 B(  0-C ,  4-O ) :   0.9053 B(  0-C ,  5-H ) :   0.9289
B(  0-C , 15-O ) :   0.8517 B(  1-C ,  2-C ) :   0.9519 B(  1-C ,  6-H ) :   0.9353
B(  1-C ,  7-H ) :   0.9350 B(  2-C ,  3-C ) :   0.9535 B(  2-C ,  8-H ) :   0.9445
B(  2-C ,  9-H ) :   0.9449 B(  3-C ,  4-O ) :   0.8315 B(  3-C , 10-H ) :   0.9346
B(  3-C , 11-H ) :   0.9401 B( 12-C , 13-H ) :   0.8939 B( 12-C , 14-H ) :   0.9179
B( 12-C , 15-O ) :   0.8383 B( 12-C , 16-C ) :   0.9082 B( 16-C , 17-C ) :   0.8733
B( 16-C , 20-O ) :   0.8684 B( 16-C , 21-H ) :   0.9288 B( 17-C , 18-C ) :   0.9214
B( 17-C , 22-H ) :   0.9329 B( 17-C , 23-O ) :   0.8988 B( 18-C , 19-C ) :   0.9385
B( 18-C , 24-H ) :   0.9415 B( 18-C , 25-H ) :   0.9414 B( 19-C , 20-O ) :   0.8519
B( 19-C , 26-H ) :   0.9314 B( 19-C , 27-H ) :   0.9378 B( 23-O , 28-H ) :   0.7978

FINAL SINGLE POINT ENERGY      -652.854055134653

DIPOLE MOMENT
-------------
                                X             Y             Z
Electronic contribution:     -1.70737      -5.01563      -2.10995
Nuclear contribution   :      2.25161       6.27424       2.88618
                        -----------------------------------------
Total Dipole Moment    :      0.54424       1.25861       0.77623
                        -----------------------------------------
Magnitude (a.u.)       :      1.57570
Magnitude (Debye)      :      4.00511

Rotational constants in cm-1:     0.048589     0.014016     0.012810
Rotational constants in MHz :  1456.672282   420.185510   384.023223

                             ****ORCA TERMINATED NORMALLY****
TOTAL RUN TIME: 0 days 0 hours 37 minutes 12 seconds 946 msec
