                         Program Version 4.2.0 -  RELEASE  -
|  1> # Test redundant internal optimization
|  2> #
|  3> ! RKS B3LYP  Opt TightSCF SmallPrint
|  4>
|  5> %basis
|  6>         Basis "6-31G"
|  7> end
|  8>
|  9> %geom
| 10> Constraints
| 11> { D 4  0  15  12  285.0   C } # D for Dihedral angle
| 12> { D 0  15  12  16  345.0   C } # D for Dihedral angle
| 13> { D 0  4  3  2   C } # D for Dihedral angle
| 14> { D 4  3  2  1   C } # D for Dihedral angle
| 15> { D 3  2  1  0   C } # D for Dihedral angle
| 16> { D 2  1  0  4   C } # D for Dihedral angle
| 17> { D 1  0  4  3   C } # D for Dihedral angle
| 18> { D 16  20  19  18   C } # D for Dihedral angle
| 19> { D 20  19  18  17   C } # D for Dihedral angle
| 20> { D 19  18  17  16   C } # D for Dihedral angle
| 21> { D 18  17  16  20   C } # D for Dihedral angle
| 22> { D 17  16  20  19   C } # D for Dihedral angle
| 23> { D 15  12  16  20   C } # D for Dihedral angle
| 24> end
| 25> end
| 26>
| 27>
| 28> #%pal
| 29> #nprocs 8
| 30> #end
| 31>
| 32> * xyz 0 1
| 33> C  -21.048   26.222   46.251
| 34> C  -20.361   27.558   45.944
| 35> C  -20.329   28.222   47.341
| 36> C  -20.110   27.022   48.296
| 37> O  -20.473   25.807   47.535
| 38> H  -20.833   25.428   45.533
| 39> H  -19.344   27.382   45.576
| 40> H  -20.898   28.157   45.201
| 41> H  -19.543   28.978   47.434
| 42> H  -21.289   28.710   47.548
| 43> H  -20.733   27.082   49.195
| 44> H  -19.064   26.913   48.597
| 45> C  -23.396   25.070   46.435
| 46> H  -23.740   24.903   47.464
| 47> H  -24.278   25.129   45.784
| 48> O  -22.586   26.394   46.375
| 49> C  -22.563   23.836   45.992
| 50> C  -23.423   22.568   45.953
| 51> C  -24.172   22.739   44.609
| 52> C  -23.120   23.428   43.706
| 53> O  -22.099   24.000   44.610
| 54> H  -21.674   23.759   46.621
| 55> H  -22.784   21.679   45.929
| 56> O  -24.385   22.446   47.166
| 57> H  -24.520   21.787   44.194
| 58> H  -25.047   23.385   44.746
| 59> H  -23.551   24.232   43.098
| 60> H  -22.607   22.721   43.047
| 61> H  -25.037   23.325   47.211
| 62> *
| 63>
| 64>                          ****END OF INPUT****
 Total Charge           Charge          ....    0
 Multiplicity           Mult            ....    1
 Number of Electrons    NEL             ....  102
FINAL SINGLE POINT ENERGY      -652.830391072261
FINAL SINGLE POINT ENERGY      -652.854464110291
FINAL SINGLE POINT ENERGY      -652.859317308424
FINAL SINGLE POINT ENERGY      -652.860251661674
FINAL SINGLE POINT ENERGY      -652.860414977948
FINAL SINGLE POINT ENERGY      -652.860450357384
FINAL SINGLE POINT ENERGY      -652.860454895817
FINAL SINGLE POINT ENERGY      -652.860456084166
                    ***********************HURRAY********************

CARTESIAN COORDINATES (ANGSTROEM)
---------------------------------
  C    -20.955331   26.209680   46.213064
  C    -20.414303   27.621244   45.976203
  C    -20.441660   28.215461   47.404717
  C    -20.093017   26.998826   48.293706
  O    -20.338160   25.798041   47.459342
  H    -20.691085   25.465835   45.462809
  H    -19.388554   27.553438   45.596165
  H    -21.024236   28.178883   45.263092
  H    -19.733317   29.039622   47.534168
  H    -21.447437   28.581521   47.629246
  H    -20.709231   26.937975   49.194902
  H    -19.036773   26.972557   48.579269
  C    -23.218569   25.140755   46.392162
  H    -23.563710   25.016208   47.426679
  H    -24.084396   25.367102   45.758679
  O    -22.388157   26.340786   46.336267
  C    -22.554121   23.832009   45.964320
  C    -23.509730   22.625165   45.995256
  C    -24.246824   22.765419   44.626674
  C    -23.138904   23.317073   43.700149
  O    -22.079264   23.870027   44.581634
  H    -21.671666   23.659605   46.586237
  H    -22.921802   21.705150   46.018017
  O    -24.373785   22.531988   47.150575
  H    -24.657209   21.814381   44.278921
  H    -25.076518   23.477127   44.729306
  H    -23.494144   24.108081   43.032167
  H    -22.674119   22.530261   43.098595
  H    -25.080975   23.207782   47.108678

 Multiplicity           Mult            ....    1
 Number of Electrons    NEL             ....  102
 Basis Dimension        Dim             ....  149

ORBITAL ENERGIES
----------------

  NO   OCC          E(Eh)            E(eV)
   0   2.0000     -19.151729      -521.1450
   1   2.0000     -19.144431      -520.9465
   2   2.0000     -19.134711      -520.6819
   3   2.0000     -19.129493      -520.5400
   4   2.0000     -10.263423      -279.2819
   5   2.0000     -10.248407      -278.8733
   6   2.0000     -10.235533      -278.5230
   7   2.0000     -10.232446      -278.4390
   8   2.0000     -10.227837      -278.3136
   9   2.0000     -10.216647      -278.0091
  10   2.0000     -10.198410      -277.5128
  11   2.0000     -10.176281      -276.9107
  12   2.0000     -10.174775      -276.8697
  13   2.0000      -1.044762       -28.4294
  14   2.0000      -1.035263       -28.1709
  15   2.0000      -1.019734       -27.7484
  16   2.0000      -0.982967       -26.7479
  17   2.0000      -0.786689       -21.4069
  18   2.0000      -0.779189       -21.2028
  19   2.0000      -0.763099       -20.7650
  20   2.0000      -0.727759       -19.8033
  21   2.0000      -0.677697       -18.4411
  22   2.0000      -0.615740       -16.7551
  23   2.0000      -0.600671       -16.3451
  24   2.0000      -0.588935       -16.0257
  25   2.0000      -0.558043       -15.1851
  26   2.0000      -0.533300       -14.5118
  27   2.0000      -0.509484       -13.8638
  28   2.0000      -0.495444       -13.4817
  29   2.0000      -0.476687       -12.9713
  30   2.0000      -0.468321       -12.7436
  31   2.0000      -0.453477       -12.3397
  32   2.0000      -0.438390       -11.9292
  33   2.0000      -0.432435       -11.7672
  34   2.0000      -0.430746       -11.7212
  35   2.0000      -0.415739       -11.3128
  36   2.0000      -0.404805       -11.0153
  37   2.0000      -0.394792       -10.7428
  38   2.0000      -0.384040       -10.4503
  39   2.0000      -0.366007        -9.9596
  40   2.0000      -0.356471        -9.7001
  41   2.0000      -0.346967        -9.4414
  42   2.0000      -0.338087        -9.1998
  43   2.0000      -0.330424        -8.9913
  44   2.0000      -0.323899        -8.8137
  45   2.0000      -0.314953        -8.5703
  46   2.0000      -0.292277        -7.9533
  47   2.0000      -0.274529        -7.4703
  48   2.0000      -0.264562        -7.1991
  49   2.0000      -0.242722        -6.6048
  50   2.0000      -0.238994        -6.5033
  51   0.0000       0.049193         1.3386
  52   0.0000       0.076645         2.0856
  53   0.0000       0.090343         2.4584
  54   0.0000       0.096218         2.6182
  55   0.0000       0.104403         2.8410

MULLIKEN ATOMIC CHARGES
-----------------------
   0 C :    0.265801
   1 C :   -0.257305
   2 C :   -0.296833
   3 C :   -0.000394
   4 O :   -0.519889
   5 H :    0.189935
   6 H :    0.142800
   7 H :    0.153567
   8 H :    0.135844
   9 H :    0.159424
  10 H :    0.142472
  11 H :    0.139087
  12 C :    0.020718
  13 H :    0.140289
  14 H :    0.130543
  15 O :   -0.538400
  16 C :    0.037411
  17 C :    0.088466
  18 C :   -0.324165
  19 C :   -0.006620
  20 O :   -0.522884
  21 H :    0.195250
  22 H :    0.169186
  23 O :   -0.594937
  24 H :    0.157357
  25 H :    0.136572
  26 H :    0.147710
  27 H :    0.152642
  28 H :    0.356355
Sum of atomic charges:   -0.0000000

LOEWDIN ATOMIC CHARGES
----------------------
   0 C :    0.163326
   1 C :   -0.212387
   2 C :   -0.216363
   3 C :   -0.028144
   4 O :   -0.336617
   5 H :    0.117892
   6 H :    0.112590
   7 H :    0.122622
   8 H :    0.110605
   9 H :    0.117721
  10 H :    0.102728
  11 H :    0.100642
  12 C :   -0.044973
  13 H :    0.104993
  14 H :    0.099196
  15 O :   -0.325184
  16 C :   -0.001093
  17 C :    0.041183
  18 C :   -0.241187
  19 C :   -0.028521
  20 O :   -0.326399
  21 H :    0.130734
  22 H :    0.120248
  23 O :   -0.402673
  24 H :    0.123071
  25 H :    0.105288
  26 H :    0.104770
  27 H :    0.107509
  28 H :    0.278422

  Mayer bond orders larger than 0.100000
B(  0-C ,  1-C ) :   0.9460 B(  0-C ,  4-O ) :   0.8865 B(  0-C ,  5-H ) :   0.8949
B(  0-C , 15-O ) :   0.8528 B(  1-C ,  2-C ) :   0.9558 B(  1-C ,  6-H ) :   0.9419
B(  1-C ,  7-H ) :   0.9378 B(  2-C ,  3-C ) :   0.9556 B(  2-C ,  8-H ) :   0.9460
B(  2-C ,  9-H ) :   0.9446 B(  3-C ,  4-O ) :   0.8404 B(  3-C , 10-H ) :   0.9363
B(  3-C , 11-H ) :   0.9408 B( 12-C , 13-H ) :   0.9069 B( 12-C , 14-H ) :   0.9332
B( 12-C , 15-O ) :   0.8477 B( 12-C , 16-C ) :   0.9060 B( 16-C , 17-C ) :   0.8667
B( 16-C , 20-O ) :   0.8353 B( 16-C , 21-H ) :   0.9119 B( 17-C , 18-C ) :   0.9203
B( 17-C , 22-H ) :   0.9339 B( 17-C , 23-O ) :   0.9066 B( 18-C , 19-C ) :   0.9403
B( 18-C , 24-H ) :   0.9422 B( 18-C , 25-H ) :   0.9401 B( 19-C , 20-O ) :   0.8378
B( 19-C , 26-H ) :   0.9320 B( 19-C , 27-H ) :   0.9384 B( 23-O , 28-H ) :   0.7972

FINAL SINGLE POINT ENERGY      -652.860456134682

DIPOLE MOMENT
-------------
                                X             Y             Z
Electronic contribution:      0.03868      -3.01308       0.75643
Nuclear contribution   :     -0.74744       3.28828      -1.36692
                        -----------------------------------------
Total Dipole Moment    :     -0.70876       0.27520      -0.61049
                        -----------------------------------------
Magnitude (a.u.)       :      0.97508
Magnitude (Debye)      :      2.47846

Rotational constants in cm-1:     0.057838     0.013680     0.012412
Rotational constants in MHz :  1733.932424   410.107056   372.113435

                             ****ORCA TERMINATED NORMALLY****
TOTAL RUN TIME: 0 days 1 hours 5 minutes 59 seconds 646 msec
