                         Program Version 4.2.0 -  RELEASE  -
|  1> # Test redundant internal optimization
|  2> #
|  3> ! RKS B3LYP  Opt TightSCF SmallPrint
|  4>
|  5> %basis
|  6>         Basis "6-31G"
|  7> end
|  8>
|  9> %geom
| 10> Constraints
| 11> { D 4  0  15  12  300.0   C } # D for Dihedral angle
| 12> { D 0  15  12  16  225.0   C } # D for Dihedral angle
| 13> { D 0  4  3  2   C } # D for Dihedral angle
| 14> { D 4  3  2  1   C } # D for Dihedral angle
| 15> { D 3  2  1  0   C } # D for Dihedral angle
| 16> { D 2  1  0  4   C } # D for Dihedral angle
| 17> { D 1  0  4  3   C } # D for Dihedral angle
| 18> { D 16  20  19  18   C } # D for Dihedral angle
| 19> { D 20  19  18  17   C } # D for Dihedral angle
| 20> { D 19  18  17  16   C } # D for Dihedral angle
| 21> { D 18  17  16  20   C } # D for Dihedral angle
| 22> { D 17  16  20  19   C } # D for Dihedral angle
| 23> { D 15  12  16  20   C } # D for Dihedral angle
| 24> end
| 25> end
| 26>
| 27>
| 28> #%pal
| 29> #nprocs 8
| 30> #end
| 31>
| 32> * xyz 0 1
| 33> C  -21.048   26.222   46.251
| 34> C  -20.361   27.558   45.944
| 35> C  -20.329   28.222   47.341
| 36> C  -20.110   27.022   48.296
| 37> O  -20.473   25.807   47.535
| 38> H  -20.833   25.428   45.533
| 39> H  -19.344   27.382   45.576
| 40> H  -20.898   28.157   45.201
| 41> H  -19.543   28.978   47.434
| 42> H  -21.289   28.710   47.548
| 43> H  -20.733   27.082   49.195
| 44> H  -19.064   26.913   48.597
| 45> C  -23.362   25.116   46.798
| 46> H  -22.707   24.242   46.687
| 47> H  -23.668   25.183   47.850
| 48> O  -22.586   26.394   46.375
| 49> C  -24.640   24.881   45.947
| 50> C  -25.565   26.103   45.981
| 51> C  -24.876   27.046   44.965
| 52> C  -24.319   26.069   43.900
| 53> O  -24.293   24.730   44.530
| 54> H  -25.112   23.948   46.261
| 55> H  -26.566   25.826   45.634
| 56> O  -25.693   26.732   47.395
| 57> H  -25.563   27.783   44.537
| 58> H  -24.060   27.592   45.453
| 59> H  -23.307   26.333   43.576
| 60> H  -24.966   25.997   43.020
| 61> H  -24.701   27.017   47.763
| 62> *
| 63>
| 64>                          ****END OF INPUT****
 Total Charge           Charge          ....    0
 Multiplicity           Mult            ....    1
 Number of Electrons    NEL             ....  102
FINAL SINGLE POINT ENERGY      -652.838326390540
FINAL SINGLE POINT ENERGY      -652.862434190032
FINAL SINGLE POINT ENERGY      -652.866862952049
FINAL SINGLE POINT ENERGY      -652.868376579746
FINAL SINGLE POINT ENERGY      -652.868497298548
FINAL SINGLE POINT ENERGY      -652.868517782614
                    ***********************HURRAY********************

CARTESIAN COORDINATES (ANGSTROEM)
---------------------------------
  C    -21.054879   26.154155   46.281570
  C    -20.425427   27.512445   45.973522
  C    -20.385388   28.166638   47.372900
  C    -20.102727   26.972496   48.311847
  O    -20.446032   25.754090   47.531216
  H    -20.847378   25.348389   45.571420
  H    -19.414535   27.356521   45.580885
  H    -21.004188   28.083753   45.244606
  H    -19.621112   28.945907   47.451930
  H    -21.358006   28.614204   47.598291
  H    -20.704508   26.989485   49.224072
  H    -19.045994   26.882998   48.579540
  C    -23.236734   25.159705   46.819130
  H    -22.604897   24.269745   46.721615
  H    -23.513435   25.263909   47.874794
  O    -22.482432   26.342737   46.398320
  C    -24.489502   24.969792   45.971928
  C    -25.502860   26.126673   46.006805
  C    -24.933445   27.085573   44.916861
  C    -24.361697   26.106458   43.870120
  O    -24.206317   24.794977   44.552825
  H    -24.955195   24.034954   46.308512
  H    -26.494647   25.760833   45.733573
  O    -25.674616   26.734469   47.309773
  H    -25.705137   27.742813   44.504899
  H    -24.138370   27.690229   45.358875
  H    -23.387282   26.420641   43.486017
  H    -25.043757   25.945393   43.029415
  H    -24.868503   27.243017   47.537738

 Multiplicity           Mult            ....    1
 Number of Electrons    NEL             ....  102
 Basis Dimension        Dim             ....  149

ORBITAL ENERGIES
----------------

  NO   OCC          E(Eh)            E(eV)
   0   2.0000     -19.151547      -521.1401
   1   2.0000     -19.145716      -520.9814
   2   2.0000     -19.138653      -520.7892
   3   2.0000     -19.133453      -520.6477
   4   2.0000     -10.283259      -279.8217
   5   2.0000     -10.235069      -278.5104
   6   2.0000     -10.230605      -278.3889
   7   2.0000     -10.228093      -278.3206
   8   2.0000     -10.227581      -278.3066
   9   2.0000     -10.222021      -278.1553
  10   2.0000     -10.191594      -277.3274
  11   2.0000     -10.191393      -277.3219
  12   2.0000     -10.178871      -276.9812
  13   2.0000      -1.059887       -28.8410
  14   2.0000      -1.026044       -27.9201
  15   2.0000      -1.008723       -27.4487
  16   2.0000      -0.996466       -27.1152
  17   2.0000      -0.794359       -21.6156
  18   2.0000      -0.771468       -20.9927
  19   2.0000      -0.764994       -20.8165
  20   2.0000      -0.733343       -19.9553
  21   2.0000      -0.676430       -18.4066
  22   2.0000      -0.605079       -16.4650
  23   2.0000      -0.600854       -16.3501
  24   2.0000      -0.596604       -16.2344
  25   2.0000      -0.569626       -15.5003
  26   2.0000      -0.527308       -14.3488
  27   2.0000      -0.510160       -13.8822
  28   2.0000      -0.496367       -13.5068
  29   2.0000      -0.492221       -13.3940
  30   2.0000      -0.464699       -12.6451
  31   2.0000      -0.461033       -12.5453
  32   2.0000      -0.446365       -12.1462
  33   2.0000      -0.427484       -11.6324
  34   2.0000      -0.421279       -11.4636
  35   2.0000      -0.414434       -11.2773
  36   2.0000      -0.403785       -10.9875
  37   2.0000      -0.397223       -10.8090
  38   2.0000      -0.384393       -10.4599
  39   2.0000      -0.363743        -9.8979
  40   2.0000      -0.362260        -9.8576
  41   2.0000      -0.355210        -9.6658
  42   2.0000      -0.348989        -9.4965
  43   2.0000      -0.334726        -9.1084
  44   2.0000      -0.322154        -8.7663
  45   2.0000      -0.307459        -8.3664
  46   2.0000      -0.302071        -8.2198
  47   2.0000      -0.277457        -7.5500
  48   2.0000      -0.261618        -7.1190
  49   2.0000      -0.258641        -7.0380
  50   2.0000      -0.237488        -6.4624
  51   0.0000       0.062841         1.7100
  52   0.0000       0.081113         2.2072
  53   0.0000       0.090941         2.4746
  54   0.0000       0.101040         2.7494
  55   0.0000       0.104459         2.8425

MULLIKEN ATOMIC CHARGES
-----------------------
   0 C :    0.287829
   1 C :   -0.266127
   2 C :   -0.298468
   3 C :   -0.005792
   4 O :   -0.511342
   5 H :    0.160267
   6 H :    0.150208
   7 H :    0.154636
   8 H :    0.144959
   9 H :    0.153360
  10 H :    0.146902
  11 H :    0.146807
  12 C :   -0.020975
  13 H :    0.160359
  14 H :    0.146649
  15 O :   -0.542896
  16 C :    0.097000
  17 C :    0.088849
  18 C :   -0.311237
  19 C :   -0.002920
  20 O :   -0.525454
  21 H :    0.146649
  22 H :    0.159896
  23 O :   -0.608094
  24 H :    0.142427
  25 H :    0.163231
  26 H :    0.137679
  27 H :    0.142191
  28 H :    0.363407
Sum of atomic charges:   -0.0000000

LOEWDIN ATOMIC CHARGES
----------------------
   0 C :    0.173624
   1 C :   -0.214919
   2 C :   -0.216130
   3 C :   -0.028487
   4 O :   -0.328387
   5 H :    0.103949
   6 H :    0.117055
   7 H :    0.122111
   8 H :    0.115240
   9 H :    0.114490
  10 H :    0.105228
  11 H :    0.104961
  12 C :   -0.046056
  13 H :    0.116142
  14 H :    0.107211
  15 O :   -0.340790
  16 C :    0.016040
  17 C :    0.037983
  18 C :   -0.242853
  19 C :   -0.025187
  20 O :   -0.326217
  21 H :    0.113508
  22 H :    0.115530
  23 O :   -0.411771
  24 H :    0.114266
  25 H :    0.120061
  26 H :    0.100544
  27 H :    0.100918
  28 H :    0.281934

  Mayer bond orders larger than 0.100000
B(  0-C ,  1-C ) :   0.9508 B(  0-C ,  4-O ) :   0.9010 B(  0-C ,  5-H ) :   0.9176
B(  0-C , 15-O ) :   0.8492 B(  1-C ,  2-C ) :   0.9545 B(  1-C ,  6-H ) :   0.9391
B(  1-C ,  7-H ) :   0.9366 B(  2-C ,  3-C ) :   0.9552 B(  2-C ,  8-H ) :   0.9449
B(  2-C ,  9-H ) :   0.9461 B(  3-C ,  4-O ) :   0.8365 B(  3-C , 10-H ) :   0.9357
B(  3-C , 11-H ) :   0.9402 B( 12-C , 13-H ) :   0.9214 B( 12-C , 14-H ) :   0.9138
B( 12-C , 15-O ) :   0.8197 B( 12-C , 16-C ) :   0.9055 B( 16-C , 17-C ) :   0.8874
B( 16-C , 20-O ) :   0.8716 B( 16-C , 21-H ) :   0.9273 B( 17-C , 18-C ) :   0.9315
B( 17-C , 22-H ) :   0.9368 B( 17-C , 23-O ) :   0.9010 B( 18-C , 19-C ) :   0.9447
B( 18-C , 24-H ) :   0.9417 B( 18-C , 25-H ) :   0.9279 B( 19-C , 20-O ) :   0.8396
B( 19-C , 26-H ) :   0.9337 B( 19-C , 27-H ) :   0.9376 B( 23-O , 28-H ) :   0.7930

FINAL SINGLE POINT ENERGY      -652.868518491533

DIPOLE MOMENT
-------------
                                X             Y             Z
Electronic contribution:     -2.39556      -4.43446       0.35866
Nuclear contribution   :      3.15228       5.46540      -0.47166
                        -----------------------------------------
Total Dipole Moment    :      0.75671       1.03094      -0.11300
                        -----------------------------------------
Magnitude (a.u.)       :      1.28383
Magnitude (Debye)      :      3.26324

Rotational constants in cm-1:     0.047700     0.015336     0.014712
Rotational constants in MHz :  1430.015215   459.770539   441.040205

                             ****ORCA TERMINATED NORMALLY****
TOTAL RUN TIME: 0 days 0 hours 16 minutes 18 seconds 83 msec
