                         Program Version 4.2.0 -  RELEASE  -
|  1> # Test redundant internal optimization
|  2> #
|  3> ! RKS B3LYP  Opt TightSCF SmallPrint
|  4>
|  5> %basis
|  6>         Basis "6-31G"
|  7> end
|  8>
|  9> %geom
| 10> Constraints
| 11> { D 4  0  15  12  240.0   C } # D for Dihedral angle
| 12> { D 0  15  12  16  150.0   C } # D for Dihedral angle
| 13> { D 0  4  3  2   C } # D for Dihedral angle
| 14> { D 4  3  2  1   C } # D for Dihedral angle
| 15> { D 3  2  1  0   C } # D for Dihedral angle
| 16> { D 2  1  0  4   C } # D for Dihedral angle
| 17> { D 1  0  4  3   C } # D for Dihedral angle
| 18> { D 16  20  19  18   C } # D for Dihedral angle
| 19> { D 20  19  18  17   C } # D for Dihedral angle
| 20> { D 19  18  17  16   C } # D for Dihedral angle
| 21> { D 18  17  16  20   C } # D for Dihedral angle
| 22> { D 17  16  20  19   C } # D for Dihedral angle
| 23> { D 15  12  16  20   C } # D for Dihedral angle
| 24> end
| 25> end
| 26>
| 27>
| 28> #%pal
| 29> #nprocs 8
| 30> #end
| 31>
| 32> * xyz 0 1
| 33> C  -21.048   26.222   46.251
| 34> C  -20.361   27.558   45.944
| 35> C  -20.329   28.222   47.341
| 36> C  -20.110   27.022   48.296
| 37> O  -20.473   25.807   47.535
| 38> H  -20.833   25.428   45.533
| 39> H  -19.344   27.382   45.576
| 40> H  -20.898   28.157   45.201
| 41> H  -19.543   28.978   47.434
| 42> H  -21.289   28.710   47.548
| 43> H  -20.733   27.082   49.195
| 44> H  -19.064   26.913   48.597
| 45> C  -23.430   25.483   45.442
| 46> H  -23.596   25.997   44.488
| 47> H  -22.898   24.545   45.238
| 48> O  -22.586   26.394   46.375
| 49> C  -24.813   25.119   46.049
| 50> C  -25.569   24.128   45.157
| 51> C  -24.884   22.790   45.523
| 52> C  -24.574   22.956   47.032
| 53> O  -24.644   24.405   47.319
| 54> H  -25.360   26.038   46.269
| 55> H  -26.630   24.107   45.431
| 56> O  -25.462   24.465   43.644
| 57> H  -25.517   21.920   45.320
| 58> H  -23.957   22.672   44.949
| 59> H  -23.578   22.585   47.298
| 60> H  -25.317   22.465   47.667
| 61> H  -24.408   24.490   43.345
| 62> *
| 63>
| 64>                          ****END OF INPUT****
 Total Charge           Charge          ....    0
 Multiplicity           Mult            ....    1
 Number of Electrons    NEL             ....  102
FINAL SINGLE POINT ENERGY      -652.825717366473
FINAL SINGLE POINT ENERGY      -652.849328804244
FINAL SINGLE POINT ENERGY      -652.853835050181
FINAL SINGLE POINT ENERGY      -652.854635523205
FINAL SINGLE POINT ENERGY      -652.854779427743
FINAL SINGLE POINT ENERGY      -652.854812057379
FINAL SINGLE POINT ENERGY      -652.854817199837
FINAL SINGLE POINT ENERGY      -652.854818063294
                    ***********************HURRAY********************

CARTESIAN COORDINATES (ANGSTROEM)
---------------------------------
  C    -21.009602   26.187309   46.178621
  C    -20.416269   27.578795   45.961339
  C    -20.501591   28.188323   47.381401
  C    -20.236776   26.971072   48.294872
  O    -20.475093   25.773333   47.450685
  H    -20.717928   25.427193   45.446816
  H    -19.371739   27.486244   45.639890
  H    -20.967903   28.151637   45.212321
  H    -19.779561   28.995030   47.538444
  H    -21.508030   28.582592   47.550234
  H    -20.905895   26.927989   49.157388
  H    -19.198472   26.912925   48.635823
  C    -23.235239   25.464906   45.352431
  H    -23.424922   25.992614   44.406854
  H    -22.684983   24.536420   45.132318
  O    -22.452575   26.297032   46.242982
  C    -24.570039   25.153538   46.028106
  C    -25.484103   24.233888   45.201587
  C    -24.931150   22.822555   45.562516
  C    -24.522680   22.987964   47.043154
  O    -24.413969   24.448085   47.293861
  H    -25.053358   26.103351   46.274626
  H    -26.513652   24.340031   45.550671
  O    -25.547962   24.523554   43.783239
  H    -25.674232   22.035573   45.408356
  H    -24.062533   22.596146   44.929080
  H    -23.564576   22.514376   47.278693
  H    -25.283784   22.602165   47.728098
  H    -24.739387   24.205362   43.332596

 Multiplicity           Mult            ....    1
 Number of Electrons    NEL             ....  102
 Basis Dimension        Dim             ....  149

ORBITAL ENERGIES
----------------

  NO   OCC          E(Eh)            E(eV)
   0   2.0000     -19.150176      -521.1028
   1   2.0000     -19.136461      -520.7296
   2   2.0000     -19.133319      -520.6441
   3   2.0000     -19.132062      -520.6099
   4   2.0000     -10.275968      -279.6233
   5   2.0000     -10.244773      -278.7744
   6   2.0000     -10.232004      -278.4270
   7   2.0000     -10.228550      -278.3330
   8   2.0000     -10.227660      -278.3088
   9   2.0000     -10.217950      -278.0446
  10   2.0000     -10.195564      -277.4354
  11   2.0000     -10.180837      -277.0347
  12   2.0000     -10.179903      -277.0092
  13   2.0000      -1.047747       -28.5106
  14   2.0000      -1.032762       -28.1029
  15   2.0000      -1.013747       -27.5854
  16   2.0000      -0.989544       -26.9269
  17   2.0000      -0.784215       -21.3396
  18   2.0000      -0.780032       -21.2257
  19   2.0000      -0.765151       -20.8208
  20   2.0000      -0.726369       -19.7655
  21   2.0000      -0.678523       -18.4635
  22   2.0000      -0.610544       -16.6137
  23   2.0000      -0.592915       -16.1340
  24   2.0000      -0.586856       -15.9692
  25   2.0000      -0.579567       -15.7708
  26   2.0000      -0.528611       -14.3842
  27   2.0000      -0.509820       -13.8729
  28   2.0000      -0.496163       -13.5013
  29   2.0000      -0.484105       -13.1732
  30   2.0000      -0.465705       -12.6725
  31   2.0000      -0.456817       -12.4306
  32   2.0000      -0.446744       -12.1565
  33   2.0000      -0.430408       -11.7120
  34   2.0000      -0.426166       -11.5966
  35   2.0000      -0.418080       -11.3765
  36   2.0000      -0.402211       -10.9447
  37   2.0000      -0.395309       -10.7569
  38   2.0000      -0.378313       -10.2944
  39   2.0000      -0.368877       -10.0376
  40   2.0000      -0.351823        -9.5736
  41   2.0000      -0.347997        -9.4695
  42   2.0000      -0.345918        -9.4129
  43   2.0000      -0.329607        -8.9691
  44   2.0000      -0.313832        -8.5398
  45   2.0000      -0.310854        -8.4588
  46   2.0000      -0.302155        -8.2221
  47   2.0000      -0.270774        -7.3681
  48   2.0000      -0.260273        -7.0824
  49   2.0000      -0.243320        -6.6211
  50   2.0000      -0.236396        -6.4327
  51   0.0000       0.050003         1.3606
  52   0.0000       0.075581         2.0567
  53   0.0000       0.088493         2.4080
  54   0.0000       0.097582         2.6554
  55   0.0000       0.109224         2.9721

MULLIKEN ATOMIC CHARGES
-----------------------
   0 C :    0.286975
   1 C :   -0.252997
   2 C :   -0.300293
   3 C :    0.000166
   4 O :   -0.499948
   5 H :    0.132886
   6 H :    0.139522
   7 H :    0.144710
   8 H :    0.138490
   9 H :    0.165354
  10 H :    0.156618
  11 H :    0.137166
  12 C :   -0.011744
  13 H :    0.134370
  14 H :    0.116604
  15 O :   -0.509433
  16 C :    0.100025
  17 C :    0.081779
  18 C :   -0.331530
  19 C :   -0.010107
  20 O :   -0.499137
  21 H :    0.165100
  22 H :    0.169341
  23 O :   -0.600308
  24 H :    0.159432
  25 H :    0.132113
  26 H :    0.149418
  27 H :    0.150651
  28 H :    0.354776
Sum of atomic charges:   -0.0000000

LOEWDIN ATOMIC CHARGES
----------------------
   0 C :    0.177110
   1 C :   -0.221458
   2 C :   -0.216414
   3 C :   -0.025967
   4 O :   -0.314748
   5 H :    0.094733
   6 H :    0.110620
   7 H :    0.117405
   8 H :    0.112476
   9 H :    0.120761
  10 H :    0.110464
  11 H :    0.099985
  12 C :   -0.047571
  13 H :    0.096885
  14 H :    0.087435
  15 O :   -0.321921
  16 C :    0.021306
  17 C :    0.034244
  18 C :   -0.243676
  19 C :   -0.030007
  20 O :   -0.308803
  21 H :    0.120264
  22 H :    0.119975
  23 O :   -0.408087
  24 H :    0.123067
  25 H :    0.102794
  26 H :    0.105860
  27 H :    0.106322
  28 H :    0.276946

  Mayer bond orders larger than 0.100000
B(  0-C ,  1-C ) :   0.9423 B(  0-C ,  4-O ) :   0.9318 B(  0-C ,  5-H ) :   0.9195
B(  0-C , 15-O ) :   0.8478 B(  1-C ,  2-C ) :   0.9583 B(  1-C ,  6-H ) :   0.9373
B(  1-C ,  7-H ) :   0.9388 B(  2-C ,  3-C ) :   0.9545 B(  2-C ,  8-H ) :   0.9455
B(  2-C ,  9-H ) :   0.9430 B(  3-C ,  4-O ) :   0.8381 B(  3-C , 10-H ) :   0.9339
B(  3-C , 11-H ) :   0.9400 B( 12-C , 13-H ) :   0.9063 B( 12-C , 14-H ) :   0.9152
B( 12-C , 15-O ) :   0.8515 B( 12-C , 16-C ) :   0.9022 B( 16-C , 17-C ) :   0.8740
B( 16-C , 20-O ) :   0.8775 B( 16-C , 21-H ) :   0.9295 B( 17-C , 18-C ) :   0.9242
B( 17-C , 22-H ) :   0.9329 B( 17-C , 23-O ) :   0.8936 B( 18-C , 19-C ) :   0.9387
B( 18-C , 24-H ) :   0.9414 B( 18-C , 25-H ) :   0.9406 B( 19-C , 20-O ) :   0.8505
B( 19-C , 26-H ) :   0.9308 B( 19-C , 27-H ) :   0.9372 B( 23-O , 28-H ) :   0.7995

FINAL SINGLE POINT ENERGY      -652.854818200632

DIPOLE MOMENT
-------------
                                X             Y             Z
Electronic contribution:     -2.49623      -0.90768       0.33384
Nuclear contribution   :      3.01474       0.62181      -1.10180
                        -----------------------------------------
Total Dipole Moment    :      0.51851      -0.28587      -0.76796
                        -----------------------------------------
Magnitude (a.u.)       :      0.96971
Magnitude (Debye)      :      2.46481

Rotational constants in cm-1:     0.057181     0.012630     0.011351
Rotational constants in MHz :  1714.241652   378.643863   340.300512

                             ****ORCA TERMINATED NORMALLY****
TOTAL RUN TIME: 0 days 0 hours 26 minutes 30 seconds 422 msec
