                         Program Version 4.2.0 -  RELEASE  -
|  1> # Test redundant internal optimization
|  2> #
|  3> ! RKS B3LYP  Opt TightSCF SmallPrint
|  4>
|  5> %basis
|  6>         Basis "6-31G"
|  7> end
|  8>
|  9> %geom
| 10> Constraints
| 11> { D 4  0  15  12  90.0   C } # D for Dihedral angle
| 12> { D 0  15  12  16  165.0   C } # D for Dihedral angle
| 13> { D 0  4  3  2   C } # D for Dihedral angle
| 14> { D 4  3  2  1   C } # D for Dihedral angle
| 15> { D 3  2  1  0   C } # D for Dihedral angle
| 16> { D 2  1  0  4   C } # D for Dihedral angle
| 17> { D 1  0  4  3   C } # D for Dihedral angle
| 18> { D 16  20  19  18   C } # D for Dihedral angle
| 19> { D 20  19  18  17   C } # D for Dihedral angle
| 20> { D 19  18  17  16   C } # D for Dihedral angle
| 21> { D 18  17  16  20   C } # D for Dihedral angle
| 22> { D 17  16  20  19   C } # D for Dihedral angle
| 23> { D 15  12  16  20   C } # D for Dihedral angle
| 24> end
| 25> end
| 26>
| 27>
| 28> #%pal
| 29> #nprocs 8
| 30> #end
| 31>
| 32> * xyz 0 1
| 33> C  -21.048   26.222   46.251
| 34> C  -20.361   27.558   45.944
| 35> C  -20.329   28.222   47.341
| 36> C  -20.110   27.022   48.296
| 37> O  -20.473   25.807   47.535
| 38> H  -20.833   25.428   45.533
| 39> H  -19.344   27.382   45.576
| 40> H  -20.898   28.157   45.201
| 41> H  -19.543   28.978   47.434
| 42> H  -21.289   28.710   47.548
| 43> H  -20.733   27.082   49.195
| 44> H  -19.064   26.913   48.597
| 45> C  -23.061   27.816   46.783
| 46> H  -22.860   27.972   47.850
| 47> H  -22.515   28.580   46.216
| 48> O  -22.586   26.394   46.375
| 49> C  -24.579   28.036   46.535
| 50> C  -24.988   29.481   46.839
| 51> C  -24.515   30.217   45.562
| 52> C  -24.764   29.174   44.444
| 53> O  -24.896   27.863   45.113
| 54> H  -25.145   27.281   47.084
| 55> O  -26.531   29.579   46.987
| 56> H  -24.528   29.876   47.751
| 57> H  -25.054   31.154   45.387
| 58> H  -23.447   30.454   45.638
| 59> H  -23.940   29.128   43.723
| 60> H  -25.698   29.356   43.904
| 61> H  -27.013   29.189   46.084
| 62> *
| 63>
| 64>                          ****END OF INPUT****
 Total Charge           Charge          ....    0
 Multiplicity           Mult            ....    1
 Number of Electrons    NEL             ....  102
FINAL SINGLE POINT ENERGY      -652.811521051445
FINAL SINGLE POINT ENERGY      -652.838307430245
FINAL SINGLE POINT ENERGY      -652.851030855577
FINAL SINGLE POINT ENERGY      -652.853349401115
FINAL SINGLE POINT ENERGY      -652.853758871978
FINAL SINGLE POINT ENERGY      -652.853810044838
FINAL SINGLE POINT ENERGY      -652.853815491437
                    ***********************HURRAY********************

CARTESIAN COORDINATES (ANGSTROEM)
---------------------------------
  C    -21.224248   26.363199   46.375762
  C    -20.235320   27.469587   45.981786
  C    -19.918285   28.127930   47.355999
  C    -19.950940   26.915252   48.322009
  O    -20.681211   25.841039   47.611771
  H    -21.231712   25.517722   45.687173
  H    -19.339171   26.998735   45.565793
  H    -20.633712   28.166816   45.239319
  H    -18.944075   28.626714   47.361382
  H    -20.672293   28.872831   47.623800
  H    -20.460708   27.131920   49.265880
  H    -18.949930   26.531466   48.539817
  C    -23.088303   28.016510   46.844710
  H    -22.995739   28.162210   47.931341
  H    -22.518495   28.802983   46.334411
  O    -22.622484   26.702260   46.453850
  C    -24.561178   28.101070   46.448749
  C    -25.213932   29.456309   46.754449
  C    -24.787523   30.298119   45.522195
  C    -24.799645   29.262212   44.371063
  O    -24.760571   27.923618   45.008176
  H    -25.097371   27.279838   46.933111
  O    -26.658584   29.328147   46.843046
  H    -24.904105   29.894939   47.704306
  H    -25.483073   31.125618   45.362700
  H    -23.785527   30.714997   45.675180
  H    -23.941083   29.363938   43.699314
  H    -25.715661   29.309622   43.773961
  H    -26.970121   28.725398   46.134945

 Multiplicity           Mult            ....    1
 Number of Electrons    NEL             ....  102
 Basis Dimension        Dim             ....  149

ORBITAL ENERGIES
----------------

  NO   OCC          E(Eh)            E(eV)
   0   2.0000     -19.142672      -520.8986
   1   2.0000     -19.142547      -520.8952
   2   2.0000     -19.140244      -520.8325
   3   2.0000     -19.138247      -520.7782
   4   2.0000     -10.277773      -279.6724
   5   2.0000     -10.245911      -278.8054
   6   2.0000     -10.237189      -278.5681
   7   2.0000     -10.235611      -278.5251
   8   2.0000     -10.232679      -278.4454
   9   2.0000     -10.228903      -278.3426
  10   2.0000     -10.195907      -277.4447
  11   2.0000     -10.194638      -277.4102
  12   2.0000     -10.192972      -277.3649
  13   2.0000      -1.051795       -28.6208
  14   2.0000      -1.037645       -28.2358
  15   2.0000      -1.008407       -27.4401
  16   2.0000      -0.995235       -27.0817
  17   2.0000      -0.791034       -21.5251
  18   2.0000      -0.788473       -21.4554
  19   2.0000      -0.773283       -21.0421
  20   2.0000      -0.733993       -19.9730
  21   2.0000      -0.681732       -18.5509
  22   2.0000      -0.608275       -16.5520
  23   2.0000      -0.605221       -16.4689
  24   2.0000      -0.599977       -16.3262
  25   2.0000      -0.578817       -15.7504
  26   2.0000      -0.528316       -14.3762
  27   2.0000      -0.509034       -13.8515
  28   2.0000      -0.502189       -13.6653
  29   2.0000      -0.492743       -13.4082
  30   2.0000      -0.483499       -13.1567
  31   2.0000      -0.462421       -12.5831
  32   2.0000      -0.454134       -12.3576
  33   2.0000      -0.436770       -11.8851
  34   2.0000      -0.432201       -11.7608
  35   2.0000      -0.414056       -11.2670
  36   2.0000      -0.406414       -11.0591
  37   2.0000      -0.396191       -10.7809
  38   2.0000      -0.385704       -10.4955
  39   2.0000      -0.374897       -10.2015
  40   2.0000      -0.364209        -9.9106
  41   2.0000      -0.361375        -9.8335
  42   2.0000      -0.354507        -9.6466
  43   2.0000      -0.332343        -9.0435
  44   2.0000      -0.315431        -8.5833
  45   2.0000      -0.309361        -8.4181
  46   2.0000      -0.297502        -8.0954
  47   2.0000      -0.273122        -7.4320
  48   2.0000      -0.267370        -7.2755
  49   2.0000      -0.252972        -6.8837
  50   2.0000      -0.245472        -6.6796
  51   0.0000       0.057402         1.5620
  52   0.0000       0.074376         2.0239
  53   0.0000       0.079185         2.1547
  54   0.0000       0.096734         2.6323
  55   0.0000       0.102210         2.7813

MULLIKEN ATOMIC CHARGES
-----------------------
   0 C :    0.309164
   1 C :   -0.297677
   2 C :   -0.311237
   3 C :   -0.006394
   4 O :   -0.499466
   5 H :    0.169951
   6 H :    0.159299
   7 H :    0.150511
   8 H :    0.145597
   9 H :    0.142405
  10 H :    0.144041
  11 H :    0.146408
  12 C :    0.002422
  13 H :    0.132883
  14 H :    0.124394
  15 O :   -0.509460
  16 C :    0.062486
  17 C :    0.079204
  18 C :   -0.295412
  19 C :   -0.029159
  20 O :   -0.506693
  21 H :    0.177695
  22 O :   -0.601008
  23 H :    0.148018
  24 H :    0.164893
  25 H :    0.138274
  26 H :    0.144569
  27 H :    0.147422
  28 H :    0.366868
Sum of atomic charges:    0.0000000

LOEWDIN ATOMIC CHARGES
----------------------
   0 C :    0.176249
   1 C :   -0.231718
   2 C :   -0.223984
   3 C :   -0.032283
   4 O :   -0.320228
   5 H :    0.115169
   6 H :    0.124524
   7 H :    0.116933
   8 H :    0.115854
   9 H :    0.106576
  10 H :    0.102350
  11 H :    0.104040
  12 C :   -0.041911
  13 H :    0.096623
  14 H :    0.090340
  15 O :   -0.307045
  16 C :    0.018092
  17 C :    0.036162
  18 C :   -0.241699
  19 C :   -0.039121
  20 O :   -0.318358
  21 H :    0.124660
  22 O :   -0.412935
  23 H :    0.113463
  24 H :    0.127587
  25 H :    0.109661
  26 H :    0.103001
  27 H :    0.103335
  28 H :    0.284663

  Mayer bond orders larger than 0.100000
B(  0-C ,  1-C ) :   0.9247 B(  0-C ,  4-O ) :   0.9004 B(  0-C ,  5-H ) :   0.9345
B(  0-C , 15-O ) :   0.8979 B(  1-C ,  2-C ) :   0.9529 B(  1-C ,  6-H ) :   0.9350
B(  1-C ,  7-H ) :   0.9324 B(  2-C ,  3-C ) :   0.9469 B(  2-C ,  8-H ) :   0.9459
B(  2-C ,  9-H ) :   0.9412 B(  3-C ,  4-O ) :   0.8515 B(  3-C , 10-H ) :   0.9341
B(  3-C , 11-H ) :   0.9388 B( 12-C , 13-H ) :   0.9074 B( 12-C , 14-H ) :   0.9064
B( 12-C , 15-O ) :   0.8508 B( 12-C , 16-C ) :   0.8959 B( 16-C , 17-C ) :   0.8996
B( 16-C , 20-O ) :   0.8674 B( 16-C , 21-H ) :   0.9212 B( 17-C , 18-C ) :   0.9096
B( 17-C , 22-O ) :   0.8962 B( 17-C , 23-H ) :   0.9342 B( 18-C , 19-C ) :   0.9387
B( 18-C , 24-H ) :   0.9374 B( 18-C , 25-H ) :   0.9348 B( 19-C , 20-O ) :   0.8537
B( 19-C , 26-H ) :   0.9345 B( 19-C , 27-H ) :   0.9377 B( 22-O , 28-H ) :   0.7928

FINAL SINGLE POINT ENERGY      -652.853814768724

DIPOLE MOMENT
-------------
                                X             Y             Z
Electronic contribution:     -4.73584      -5.53967       0.06866
Nuclear contribution   :      5.80158       7.05457      -0.39265
                        -----------------------------------------
Total Dipole Moment    :      1.06574       1.51490      -0.32399
                        -----------------------------------------
Magnitude (a.u.)       :      1.88034
Magnitude (Debye)      :      4.77945

Rotational constants in cm-1:     0.058437     0.012327     0.012170
Rotational constants in MHz :  1751.883320   369.552940   364.859837

                             ****ORCA TERMINATED NORMALLY****
TOTAL RUN TIME: 0 days 0 hours 19 minutes 37 seconds 136 msec
