                         Program Version 4.2.0 -  RELEASE  -
|  1> # Test redundant internal optimization
|  2> #
|  3> ! RKS B3LYP  Opt TightSCF SmallPrint
|  4>
|  5> %basis
|  6>         Basis "6-31G"
|  7> end
|  8>
|  9> %geom
| 10> Constraints
| 11> { D 4  0  15  12  30.0   C } # D for Dihedral angle
| 12> { D 0  15  12  16  120.0   C } # D for Dihedral angle
| 13> { D 0  4  3  2   C } # D for Dihedral angle
| 14> { D 4  3  2  1   C } # D for Dihedral angle
| 15> { D 3  2  1  0   C } # D for Dihedral angle
| 16> { D 2  1  0  4   C } # D for Dihedral angle
| 17> { D 1  0  4  3   C } # D for Dihedral angle
| 18> { D 16  20  19  18   C } # D for Dihedral angle
| 19> { D 20  19  18  17   C } # D for Dihedral angle
| 20> { D 19  18  17  16   C } # D for Dihedral angle
| 21> { D 18  17  16  20   C } # D for Dihedral angle
| 22> { D 17  16  20  19   C } # D for Dihedral angle
| 23> { D 15  12  16  20   C } # D for Dihedral angle
| 24> end
| 25> end
| 26>
| 27>
| 28> #%pal
| 29> #nprocs 8
| 30> #end
| 31>
| 32> * xyz 0 1
| 33> C  -21.048   26.222   46.251
| 34> C  -20.361   27.558   45.944
| 35> C  -20.329   28.222   47.341
| 36> C  -20.110   27.022   48.296
| 37> O  -20.473   25.807   47.535
| 38> H  -20.833   25.428   45.533
| 39> H  -19.344   27.382   45.576
| 40> H  -20.898   28.157   45.201
| 41> H  -19.543   28.978   47.434
| 42> H  -21.289   28.710   47.548
| 43> H  -20.733   27.082   49.195
| 44> H  -19.064   26.913   48.597
| 45> C  -23.091   26.824   47.779
| 46> H  -23.767   26.054   48.172
| 47> H  -22.249   26.928   48.475
| 48> O  -22.586   26.394   46.375
| 49> C  -23.854   28.177   47.755
| 50> C  -25.147   28.073   46.937
| 51> C  -26.098   27.378   47.941
| 52> C  -25.658   27.966   49.305
| 53> O  -24.308   28.534   49.103
| 54> H  -23.174   28.966   47.427
| 55> H  -25.514   29.074   46.685
| 56> O  -24.971   27.270   45.619
| 57> H  -27.154   27.568   47.726
| 58> H  -25.941   26.293   47.918
| 59> H  -25.613   27.207   50.094
| 60> H  -26.306   28.782   49.637
| 61> H  -24.604   26.264   45.847
| 62> *
| 63>
| 64>                          ****END OF INPUT****
 Total Charge           Charge          ....    0
 Multiplicity           Mult            ....    1
 Number of Electrons    NEL             ....  102
FINAL SINGLE POINT ENERGY      -652.820552232634
FINAL SINGLE POINT ENERGY      -652.846477201158
FINAL SINGLE POINT ENERGY      -652.856299777413
FINAL SINGLE POINT ENERGY      -652.859516190848
FINAL SINGLE POINT ENERGY      -652.861036587143
FINAL SINGLE POINT ENERGY      -652.861897531635
FINAL SINGLE POINT ENERGY      -652.862248206971
FINAL SINGLE POINT ENERGY      -652.862328850365
FINAL SINGLE POINT ENERGY      -652.862339340141
                    ***********************HURRAY********************

CARTESIAN COORDINATES (ANGSTROEM)
---------------------------------
  C    -21.163373   26.264479   46.414289
  C    -20.469285   27.544507   45.940239
  C    -20.129712   28.242958   47.284260
  C    -19.805871   27.054212   48.217972
  O    -20.394268   25.852564   47.557439
  H    -21.117774   25.447566   45.692535
  H    -19.556265   27.271012   45.399871
  H    -21.103869   28.145683   45.284943
  H    -19.286796   28.934579   47.194882
  H    -20.988983   28.813873   47.650092
  H    -20.230255   27.152476   49.220789
  H    -18.732232   26.863390   48.301671
  C    -23.139805   26.790264   47.967370
  H    -23.787740   25.970039   48.294224
  H    -22.349903   26.905261   48.710446
  O    -22.595710   26.408929   46.659036
  C    -23.931854   28.094607   47.826277
  C    -25.166811   28.001754   46.913424
  C    -26.205821   27.330692   47.857559
  C    -25.860174   27.923773   49.238695
  O    -24.473952   28.473470   49.129049
  H    -23.259414   28.901396   47.518615
  H    -25.501318   29.016901   46.672327
  O    -24.976680   27.310305   45.664765
  H    -27.231912   27.546247   47.548204
  H    -26.067459   26.244127   47.826607
  H    -25.879845   27.186241   50.046955
  H    -26.505856   28.763714   49.510646
  H    -24.147064   26.777983   45.702819

 Multiplicity           Mult            ....    1
 Number of Electrons    NEL             ....  102
 Basis Dimension        Dim             ....  149

ORBITAL ENERGIES
----------------

  NO   OCC          E(Eh)            E(eV)
   0   2.0000     -19.160157      -521.3744
   1   2.0000     -19.159930      -521.3682
   2   2.0000     -19.141395      -520.8638
   3   2.0000     -19.113807      -520.1131
   4   2.0000     -10.292805      -280.0815
   5   2.0000     -10.241268      -278.6791
   6   2.0000     -10.237493      -278.5763
   7   2.0000     -10.234514      -278.4953
   8   2.0000     -10.230570      -278.3880
   9   2.0000     -10.227344      -278.3002
  10   2.0000     -10.200991      -277.5831
  11   2.0000     -10.196643      -277.4648
  12   2.0000     -10.179288      -276.9925
  13   2.0000      -1.066280       -29.0149
  14   2.0000      -1.026585       -27.9348
  15   2.0000      -1.008048       -27.4304
  16   2.0000      -0.992392       -27.0044
  17   2.0000      -0.798953       -21.7406
  18   2.0000      -0.778532       -21.1849
  19   2.0000      -0.769146       -20.9295
  20   2.0000      -0.739372       -20.1193
  21   2.0000      -0.681490       -18.5443
  22   2.0000      -0.613736       -16.7006
  23   2.0000      -0.602063       -16.3830
  24   2.0000      -0.596727       -16.2378
  25   2.0000      -0.578512       -15.7421
  26   2.0000      -0.537800       -14.6343
  27   2.0000      -0.511155       -13.9092
  28   2.0000      -0.509252       -13.8574
  29   2.0000      -0.490021       -13.3341
  30   2.0000      -0.476424       -12.9642
  31   2.0000      -0.459691       -12.5088
  32   2.0000      -0.447382       -12.1739
  33   2.0000      -0.429806       -11.6956
  34   2.0000      -0.426565       -11.6074
  35   2.0000      -0.424446       -11.5498
  36   2.0000      -0.411780       -11.2051
  37   2.0000      -0.388894       -10.5823
  38   2.0000      -0.387235       -10.5372
  39   2.0000      -0.370321       -10.0770
  40   2.0000      -0.366654        -9.9772
  41   2.0000      -0.359188        -9.7740
  42   2.0000      -0.356065        -9.6890
  43   2.0000      -0.344282        -9.3684
  44   2.0000      -0.329332        -8.9616
  45   2.0000      -0.322375        -8.7723
  46   2.0000      -0.287477        -7.8226
  47   2.0000      -0.275979        -7.5098
  48   2.0000      -0.273131        -7.4323
  49   2.0000      -0.248050        -6.7498
  50   2.0000      -0.240123        -6.5341
  51   0.0000       0.057769         1.5720
  52   0.0000       0.066878         1.8198
  53   0.0000       0.086878         2.3641
  54   0.0000       0.094706         2.5771
  55   0.0000       0.101106         2.7512

MULLIKEN ATOMIC CHARGES
-----------------------
   0 C :    0.311217
   1 C :   -0.266101
   2 C :   -0.320406
   3 C :   -0.027466
   4 O :   -0.504074
   5 H :    0.170160
   6 H :    0.154644
   7 H :    0.160565
   8 H :    0.154643
   9 H :    0.160995
  10 H :    0.154891
  11 H :    0.157170
  12 C :   -0.028227
  13 H :    0.155465
  14 H :    0.168691
  15 O :   -0.570454
  16 C :    0.052486
  17 C :    0.123507
  18 C :   -0.304554
  19 C :   -0.024929
  20 O :   -0.522898
  21 H :    0.150052
  22 H :    0.144599
  23 O :   -0.641076
  24 H :    0.151095
  25 H :    0.150867
  26 H :    0.144513
  27 H :    0.150596
  28 H :    0.394029
Sum of atomic charges:   -0.0000000

LOEWDIN ATOMIC CHARGES
----------------------
   0 C :    0.185092
   1 C :   -0.225984
   2 C :   -0.223082
   3 C :   -0.034849
   4 O :   -0.311623
   5 H :    0.114292
   6 H :    0.120160
   7 H :    0.124773
   8 H :    0.121375
   9 H :    0.114204
  10 H :    0.105780
  11 H :    0.109740
  12 C :   -0.043995
  13 H :    0.109662
  14 H :    0.117909
  15 O :   -0.345300
  16 C :    0.010027
  17 C :    0.042368
  18 C :   -0.237824
  19 C :   -0.033057
  20 O :   -0.326861
  21 H :    0.105847
  22 H :    0.104381
  23 O :   -0.434295
  24 H :    0.121323
  25 H :    0.113218
  26 H :    0.102964
  27 H :    0.106326
  28 H :    0.287429

  Mayer bond orders larger than 0.100000
B(  0-C ,  1-C ) :   0.9223 B(  0-C ,  4-O ) :   0.9307 B(  0-C ,  5-H ) :   0.9336
B(  0-C , 15-O ) :   0.8178 B(  1-C ,  2-C ) :   0.9529 B(  1-C ,  6-H ) :   0.9330
B(  1-C ,  7-H ) :   0.9351 B(  2-C ,  3-C ) :   0.9496 B(  2-C ,  8-H ) :   0.9438
B(  2-C ,  9-H ) :   0.9354 B(  3-C ,  4-O ) :   0.8266 B(  3-C , 10-H ) :   0.9281
B(  3-C , 11-H ) :   0.9386 B( 12-C , 13-H ) :   0.9325 B( 12-C , 14-H ) :   0.9161
B( 12-C , 15-O ) :   0.7809 B( 12-C , 16-C ) :   0.8912 B( 16-C , 17-C ) :   0.9097
B( 16-C , 20-O ) :   0.8540 B( 16-C , 21-H ) :   0.9234 B( 17-C , 18-C ) :   0.9011
B( 17-C , 22-H ) :   0.9316 B( 17-C , 23-O ) :   0.9357 B( 18-C , 19-C ) :   0.9389
B( 18-C , 24-H ) :   0.9450 B( 18-C , 25-H ) :   0.9419 B( 19-C , 20-O ) :   0.8314
B( 19-C , 26-H ) :   0.9340 B( 19-C , 27-H ) :   0.9382 B( 23-O , 28-H ) :   0.7235

FINAL SINGLE POINT ENERGY      -652.862340627580

DIPOLE MOMENT
-------------
                                X             Y             Z
Electronic contribution:     -0.58970      -2.28645      -1.22595
Nuclear contribution   :      1.40597       2.66704       1.59277
                        -----------------------------------------
Total Dipole Moment    :      0.81627       0.38059       0.36682
                        -----------------------------------------
Magnitude (a.u.)       :      0.97247
Magnitude (Debye)      :      2.47183

Rotational constants in cm-1:     0.051235     0.015325     0.013760
Rotational constants in MHz :  1535.990590   459.439743   412.506139

                             ****ORCA TERMINATED NORMALLY****
TOTAL RUN TIME: 0 days 0 hours 42 minutes 17 seconds 565 msec
