                         Program Version 4.2.1 -  RELEASE  -
|  1> # Test redundant internal optimization
|  2> #
|  3> ! RKS B3LYP  Opt TightSCF SmallPrint
|  4>
|  5> %basis
|  6>         Basis "6-31G"
|  7> end
|  8>
|  9> %geom
| 10> Constraints
| 11> { D 4  0  19  14  330.0   C } # D for Dihedral angle
| 12> { D 0  19  14  12  105.0   C } # D for Dihedral angle
| 13> { D 0  4  3  2   C } # D for Dihedral angle
| 14> { D 4  3  2  1   C } # D for Dihedral angle
| 15> { D 3  2  1  0   C } # D for Dihedral angle
| 16> { D 2  1  0  4   C } # D for Dihedral angle
| 17> { D 1  0  4  3   C } # D for Dihedral angle
| 18> { D 14  15  16  17   C } # D for Dihedral angle
| 19> { D 15  16  17  12   C } # D for Dihedral angle
| 20> { D 16  17  12  14   C } # D for Dihedral angle
| 21> { D 17  12  14  15   C } # D for Dihedral angle
| 22> { D 12  14  15  16   C } # D for Dihedral angle
| 23> end
| 24> end
| 25>
| 26>
| 27> #%pal
| 28> #nprocs 8
| 29> #end
| 30>
| 31> * xyz 0 1
| 32> C  -21.048   26.222   46.251
| 33> C  -20.361   27.558   45.944
| 34> C  -20.329   28.222   47.341
| 35> C  -20.110   27.022   48.296
| 36> O  -20.473   25.807   47.535
| 37> H  -20.833   25.428   45.533
| 38> H  -19.344   27.382   45.576
| 39> H  -20.898   28.157   45.201
| 40> H  -19.543   28.978   47.434
| 41> H  -21.289   28.710   47.548
| 42> H  -20.733   27.082   49.195
| 43> H  -19.064   26.913   48.597
| 44> C  -23.457   26.330   48.591
| 45> H  -23.656   25.669   49.450
| 46> C  -23.087   25.523   47.341
| 47> C  -24.474   25.047   46.852
| 48> C  -25.401   26.237   47.205
| 49> O  -24.677   27.050   48.207
| 50> H  -22.721   27.081   48.880
| 51> O  -22.472   26.381   46.366
| 52> H  -22.403   24.694   47.552
| 53> H  -24.490   24.808   45.784
| 54> H  -24.779   24.146   47.399
| 55> H  -26.358   25.915   47.628
| 56> H  -25.594   26.886   46.345
| 57> *
| 58>
| 59>                          ****END OF INPUT****
 Total Charge           Charge          ....    0
 Multiplicity           Mult            ....    1
 Number of Electrons    NEL             ....   86
FINAL SINGLE POINT ENERGY      -538.430699231219
FINAL SINGLE POINT ENERGY      -538.434319825261
FINAL SINGLE POINT ENERGY      -538.434925014254
FINAL SINGLE POINT ENERGY      -538.435040754912
FINAL SINGLE POINT ENERGY      -538.435052905428
FINAL SINGLE POINT ENERGY      -538.435056869382
                    ***********************HURRAY********************

CARTESIAN COORDINATES (ANGSTROEM)
---------------------------------
  C    -21.008181   26.193267   46.299203
  C    -20.434934   27.565327   45.944837
  C    -20.343583   28.235508   47.333398
  C    -19.979217   27.063974   48.271855
  O    -20.326296   25.823042   47.521172
  H    -20.779580   25.392650   45.588140
  H    -19.442553   27.435317   45.498436
  H    -21.075224   28.108902   45.247129
  H    -19.599769   29.037511   47.366268
  H    -21.317492   28.657364   47.599561
  H    -20.530457   27.074760   49.215563
  H    -18.907953   27.005059   48.484870
  C    -23.533998   26.276174   48.647722
  H    -23.811810   25.605619   49.474790
  C    -23.120065   25.464902   47.420076
  C    -24.487089   25.066063   46.834912
  C    -25.378870   26.293727   47.135276
  O    -24.684820   27.059776   48.194457
  H    -22.775428   26.980538   48.988854
  O    -22.448522   26.308370   46.429592
  H    -22.488820   24.609241   47.675502
  H    -24.407822   24.847301   45.767897
  H    -24.858986   24.172491   47.349299
  H    -26.376728   26.014081   47.490774
  H    -25.475805   26.957036   46.271420

 Multiplicity           Mult            ....    1
 Number of Electrons    NEL             ....   86
 Basis Dimension        Dim             ....  127

ORBITAL ENERGIES
----------------

  NO   OCC          E(Eh)            E(eV)
   0   2.0000     -19.148632      -521.0608
   1   2.0000     -19.137640      -520.7617
   2   2.0000     -19.124336      -520.3996
   3   2.0000     -10.278651      -279.6963
   4   2.0000     -10.234515      -278.4953
   5   2.0000     -10.230322      -278.3812
   6   2.0000     -10.218013      -278.0463
   7   2.0000     -10.215948      -277.9901
   8   2.0000     -10.186802      -277.1970
   9   2.0000     -10.184916      -277.1457
  10   2.0000     -10.180842      -277.0348
  11   2.0000      -1.054358       -28.6905
  12   2.0000      -1.010925       -27.5087
  13   2.0000      -0.987289       -26.8655
  14   2.0000      -0.792730       -21.5713
  15   2.0000      -0.775850       -21.1120
  16   2.0000      -0.737818       -20.0771
  17   2.0000      -0.719805       -19.5869
  18   2.0000      -0.612354       -16.6630
  19   2.0000      -0.599063       -16.3013
  20   2.0000      -0.593297       -16.1444
  21   2.0000      -0.567135       -15.4325
  22   2.0000      -0.516914       -14.0660
  23   2.0000      -0.503150       -13.6914
  24   2.0000      -0.486741       -13.2449
  25   2.0000      -0.480202       -13.0670
  26   2.0000      -0.451689       -12.2911
  27   2.0000      -0.438466       -11.9313
  28   2.0000      -0.425175       -11.5696
  29   2.0000      -0.412117       -11.2143
  30   2.0000      -0.410992       -11.1837
  31   2.0000      -0.379213       -10.3189
  32   2.0000      -0.368478       -10.0268
  33   2.0000      -0.363864        -9.9012
  34   2.0000      -0.359585        -9.7848
  35   2.0000      -0.353241        -9.6122
  36   2.0000      -0.343425        -9.3451
  37   2.0000      -0.331831        -9.0296
  38   2.0000      -0.300992        -8.1904
  39   2.0000      -0.298935        -8.1344
  40   2.0000      -0.264119        -7.1870
  41   2.0000      -0.253720        -6.9041
  42   2.0000      -0.229569        -6.2469
  43   0.0000       0.077646         2.1128
  44   0.0000       0.092783         2.5247
  45   0.0000       0.101148         2.7524
  46   0.0000       0.108856         2.9621
  47   0.0000       0.114625         3.1191

MULLIKEN ATOMIC CHARGES
-----------------------
   0 C :    0.295494
   1 C :   -0.259524
   2 C :   -0.308058
   3 C :   -0.014558
   4 O :   -0.516625
   5 H :    0.147694
   6 H :    0.143653
   7 H :    0.163552
   8 H :    0.144900
   9 H :    0.171178
  10 H :    0.143125
  11 H :    0.148694
  12 C :    0.007561
  13 H :    0.122099
  14 C :    0.059810
  15 C :   -0.284530
  16 C :    0.000426
  17 O :   -0.524238
  18 H :    0.151268
  19 O :   -0.528690
  20 H :    0.154794
  21 H :    0.156774
  22 H :    0.138000
  23 H :    0.133323
  24 H :    0.153878
Sum of atomic charges:    0.0000000

LOEWDIN ATOMIC CHARGES
----------------------
   0 C :    0.178482
   1 C :   -0.215105
   2 C :   -0.218595
   3 C :   -0.031513
   4 O :   -0.327456
   5 H :    0.096847
   6 H :    0.113472
   7 H :    0.127729
   8 H :    0.116143
   9 H :    0.121960
  10 H :    0.100702
  11 H :    0.105766
  12 C :   -0.040820
  13 H :    0.091123
  14 C :    0.037270
  15 C :   -0.225703
  16 C :   -0.028600
  17 O :   -0.333319
  18 H :    0.111605
  19 O :   -0.333003
  20 H :    0.112033
  21 H :    0.125326
  22 H :    0.110721
  23 H :    0.096959
  24 H :    0.107976

  Mayer bond orders larger than 0.100000
B(  0-C ,  1-C ) :   0.9442 B(  0-C ,  4-O ) :   0.8984 B(  0-C ,  5-H ) :   0.9242
B(  0-C , 19-O ) :   0.8589 B(  1-C ,  2-C ) :   0.9531 B(  1-C ,  6-H ) :   0.9376
B(  1-C ,  7-H ) :   0.9351 B(  2-C ,  3-C ) :   0.9561 B(  2-C ,  8-H ) :   0.9444
B(  2-C ,  9-H ) :   0.9399 B(  3-C ,  4-O ) :   0.8314 B(  3-C , 10-H ) :   0.9288
B(  3-C , 11-H ) :   0.9396 B( 12-C , 13-H ) :   0.9120 B( 12-C , 14-C ) :   0.9216
B( 12-C , 17-O ) :   0.8714 B( 12-C , 18-H ) :   0.9286 B( 14-C , 15-C ) :   0.9529
B( 14-C , 19-O ) :   0.8178 B( 14-C , 20-H ) :   0.9161 B( 15-C , 16-C ) :   0.9471
B( 15-C , 21-H ) :   0.9389 B( 15-C , 22-H ) :   0.9423 B( 16-C , 17-O ) :   0.8544
B( 16-C , 23-H ) :   0.9336 B( 16-C , 24-H ) :   0.9362

FINAL SINGLE POINT ENERGY      -538.435056955698

DIPOLE MOMENT
-------------
                                X             Y             Z
Electronic contribution:     -0.41588      -1.25649      -0.21052
Nuclear contribution   :      0.92381       1.01495       0.03478
                        -----------------------------------------
Total Dipole Moment    :      0.50792      -0.24154      -0.17574
                        -----------------------------------------
Magnitude (a.u.)       :      0.58925
Magnitude (Debye)      :      1.49774

Rotational constants in cm-1:     0.074363     0.023139     0.022139
Rotational constants in MHz :  2229.349725   693.688860   663.724984

                             ****ORCA TERMINATED NORMALLY****
TOTAL RUN TIME: 0 days 0 hours 6 minutes 49 seconds 133 msec
