                         Program Version 4.2.0 -  RELEASE  -
|  1> # Test redundant internal optimization
|  2> #
|  3> ! RKS B3LYP  Opt TightSCF SmallPrint
|  4>
|  5> %basis
|  6>         Basis "6-31G"
|  7> end
|  8>
|  9> %geom
| 10> Constraints
| 11> { D 4  0  15  12  195.0   C } # D for Dihedral angle
| 12> { D 0  15  12  16  270.0   C } # D for Dihedral angle
| 13> { D 0  4  3  2   C } # D for Dihedral angle
| 14> { D 4  3  2  1   C } # D for Dihedral angle
| 15> { D 3  2  1  0   C } # D for Dihedral angle
| 16> { D 2  1  0  4   C } # D for Dihedral angle
| 17> { D 1  0  4  3   C } # D for Dihedral angle
| 18> { D 16  20  19  18   C } # D for Dihedral angle
| 19> { D 20  19  18  17   C } # D for Dihedral angle
| 20> { D 19  18  17  16   C } # D for Dihedral angle
| 21> { D 18  17  16  20   C } # D for Dihedral angle
| 22> { D 17  16  20  19   C } # D for Dihedral angle
| 23> { D 15  12  16  20   C } # D for Dihedral angle
| 24> end
| 25> end
| 26>
| 27>
| 28> #%pal
| 29> #nprocs 8
| 30> #end
| 31>
| 32> * xyz 0 1
| 33> C  -21.048   26.222   46.251
| 34> C  -20.361   27.558   45.944
| 35> C  -20.329   28.222   47.341
| 36> C  -20.110   27.022   48.296
| 37> O  -20.473   25.807   47.535
| 38> H  -20.833   25.428   45.533
| 39> H  -19.344   27.382   45.576
| 40> H  -20.898   28.157   45.201
| 41> H  -19.543   28.978   47.434
| 42> H  -21.289   28.710   47.548
| 43> H  -20.733   27.082   49.195
| 44> H  -19.064   26.913   48.597
| 45> C  -23.353   26.472   45.026
| 46> H  -22.820   25.880   44.272
| 47> H  -24.364   26.059   45.135
| 48> O  -22.586   26.394   46.375
| 49> C  -23.490   27.927   44.497
| 50> C  -22.122   28.526   44.155
| 51> C  -21.836   27.887   42.775
| 52> C  -23.241   27.810   42.125
| 53> O  -24.220   27.942   43.225
| 54> H  -24.076   28.512   45.209
| 55> O  -22.233   30.070   44.032
| 56> H  -21.352   28.295   44.898
| 57> H  -21.130   28.470   42.175
| 58> H  -21.415   26.883   42.906
| 59> H  -23.411   26.862   41.605
| 60> H  -23.424   28.633   41.429
| 61> H  -22.999   30.327   43.291
| 62> *
| 63>
| 64>                          ****END OF INPUT****
 Total Charge           Charge          ....    0
 Multiplicity           Mult            ....    1
 Number of Electrons    NEL             ....  102
FINAL SINGLE POINT ENERGY      -652.623302346942
FINAL SINGLE POINT ENERGY      -652.723768786049
FINAL SINGLE POINT ENERGY      -652.775276725913
FINAL SINGLE POINT ENERGY      -652.805625395699
FINAL SINGLE POINT ENERGY      -652.822881312199
FINAL SINGLE POINT ENERGY      -652.832593257290
FINAL SINGLE POINT ENERGY      -652.836203652583
FINAL SINGLE POINT ENERGY      -652.838719925856
FINAL SINGLE POINT ENERGY      -652.839355549702
FINAL SINGLE POINT ENERGY      -652.839573597746
FINAL SINGLE POINT ENERGY      -652.842144325915
FINAL SINGLE POINT ENERGY      -652.842150350555
FINAL SINGLE POINT ENERGY      -652.842158871768
FINAL SINGLE POINT ENERGY      -652.844088950527
FINAL SINGLE POINT ENERGY      -652.845725918589
FINAL SINGLE POINT ENERGY      -652.845958166560
FINAL SINGLE POINT ENERGY      -652.845950273384
FINAL SINGLE POINT ENERGY      -652.846003772835
FINAL SINGLE POINT ENERGY      -652.846002636314
                    ***********************HURRAY********************

CARTESIAN COORDINATES (ANGSTROEM)
---------------------------------
  C    -20.951360   26.188926   46.315220
  C    -20.022839   27.391475   46.151311
  C    -20.133542   28.082504   47.536400
  C    -20.279176   26.880577   48.493085
  O    -20.688013   25.737479   47.648583
  H    -20.744118   25.360693   45.626756
  H    -19.005796   27.007275   46.001374
  H    -20.254604   28.041550   45.315298
  H    -19.262142   28.701958   47.766973
  H    -21.027325   28.713688   47.567962
  H    -21.039319   27.034037   49.263086
  H    -19.333549   26.600046   48.967178
  C    -23.176687   26.655076   45.096311
  H    -22.807866   25.965843   44.317642
  H    -24.174862   26.312379   45.377774
  O    -22.384584   26.469396   46.301605
  C    -23.389551   28.040033   44.425445
  C    -22.231515   28.853782   43.825355
  C    -21.962218   28.091134   42.497284
  C    -23.381636   27.636970   42.069750
  O    -24.237403   27.722325   43.269716
  H    -23.975203   28.682149   45.090494
  O    -22.678065   30.217426   43.567839
  H    -21.364982   28.969505   44.462525
  H    -21.483906   28.744877   41.764093
  H    -21.306976   27.230761   42.676911
  H    -23.401405   26.610783   41.690202
  H    -23.818952   28.295303   41.312599
  H    -23.579407   30.192048   43.182230

 Multiplicity           Mult            ....    1
 Number of Electrons    NEL             ....  102
 Basis Dimension        Dim             ....  149

ORBITAL ENERGIES
----------------

  NO   OCC          E(Eh)            E(eV)
   0   2.0000     -19.152944      -521.1781
   1   2.0000     -19.143501      -520.9211
   2   2.0000     -19.140459      -520.8384
   3   2.0000     -19.139527      -520.8130
   4   2.0000     -10.284286      -279.8496
   5   2.0000     -10.248319      -278.8709
   6   2.0000     -10.240845      -278.6676
   7   2.0000     -10.239084      -278.6196
   8   2.0000     -10.234403      -278.4923
   9   2.0000     -10.225510      -278.2503
  10   2.0000     -10.197510      -277.4884
  11   2.0000     -10.191020      -277.3117
  12   2.0000     -10.189127      -277.2603
  13   2.0000      -1.053878       -28.6775
  14   2.0000      -1.046403       -28.4741
  15   2.0000      -1.012840       -27.5608
  16   2.0000      -0.990846       -26.9623
  17   2.0000      -0.789644       -21.4873
  18   2.0000      -0.784902       -21.3583
  19   2.0000      -0.771882       -21.0040
  20   2.0000      -0.738840       -20.1048
  21   2.0000      -0.679666       -18.4947
  22   2.0000      -0.614963       -16.7340
  23   2.0000      -0.606922       -16.5152
  24   2.0000      -0.599449       -16.3118
  25   2.0000      -0.579656       -15.7732
  26   2.0000      -0.527509       -14.3542
  27   2.0000      -0.521624       -14.1941
  28   2.0000      -0.504493       -13.7280
  29   2.0000      -0.488032       -13.2800
  30   2.0000      -0.480205       -13.0670
  31   2.0000      -0.461421       -12.5559
  32   2.0000      -0.456708       -12.4277
  33   2.0000      -0.436293       -11.8721
  34   2.0000      -0.425439       -11.5768
  35   2.0000      -0.421663       -11.4740
  36   2.0000      -0.410743       -11.1769
  37   2.0000      -0.398241       -10.8367
  38   2.0000      -0.382272       -10.4022
  39   2.0000      -0.374317       -10.1857
  40   2.0000      -0.367691       -10.0054
  41   2.0000      -0.358060        -9.7433
  42   2.0000      -0.353576        -9.6213
  43   2.0000      -0.338173        -9.2022
  44   2.0000      -0.315955        -8.5976
  45   2.0000      -0.311521        -8.4769
  46   2.0000      -0.294875        -8.0240
  47   2.0000      -0.278183        -7.5697
  48   2.0000      -0.270522        -7.3613
  49   2.0000      -0.259501        -7.0614
  50   2.0000      -0.241564        -6.5733
  51   0.0000       0.061385         1.6704
  52   0.0000       0.065789         1.7902
  53   0.0000       0.084819         2.3080
  54   0.0000       0.093705         2.5498
  55   0.0000       0.098185         2.6717

MULLIKEN ATOMIC CHARGES
-----------------------
   0 C :    0.308158
   1 C :   -0.281896
   2 C :   -0.299901
   3 C :    0.001950
   4 O :   -0.495672
   5 H :    0.135349
   6 H :    0.147439
   7 H :    0.138579
   8 H :    0.143669
   9 H :    0.161055
  10 H :    0.155845
  11 H :    0.142483
  12 C :   -0.002116
  13 H :    0.116923
  14 H :    0.176152
  15 O :   -0.518211
  16 C :    0.041970
  17 C :    0.071144
  18 C :   -0.297979
  19 C :   -0.029564
  20 O :   -0.521872
  21 H :    0.165355
  22 O :   -0.605335
  23 H :    0.167879
  24 H :    0.166076
  25 H :    0.144761
  26 H :    0.149847
  27 H :    0.151218
  28 H :    0.366694
Sum of atomic charges:   -0.0000000

LOEWDIN ATOMIC CHARGES
----------------------
   0 C :    0.186470
   1 C :   -0.233682
   2 C :   -0.216447
   3 C :   -0.024840
   4 O :   -0.299536
   5 H :    0.093842
   6 H :    0.116691
   7 H :    0.111016
   8 H :    0.115455
   9 H :    0.117694
  10 H :    0.110210
  11 H :    0.102161
  12 C :   -0.042378
  13 H :    0.089099
  14 H :    0.127581
  15 O :   -0.338992
  16 C :    0.005051
  17 C :    0.031994
  18 C :   -0.241430
  19 C :   -0.038963
  20 O :   -0.325001
  21 H :    0.116182
  22 O :   -0.415052
  23 H :    0.118258
  24 H :    0.128316
  25 H :    0.112715
  26 H :    0.105610
  27 H :    0.104557
  28 H :    0.283418

  Mayer bond orders larger than 0.100000
B(  0-C ,  1-C ) :   0.9251 B(  0-C ,  4-O ) :   0.9393 B(  0-C ,  5-H ) :   0.9195
B(  0-C , 15-O ) :   0.8387 B(  1-C ,  2-C ) :   0.9555 B(  1-C ,  6-H ) :   0.9312
B(  1-C ,  7-H ) :   0.9104 B(  2-C ,  3-C ) :   0.9534 B(  2-C ,  8-H ) :   0.9447
B(  2-C ,  9-H ) :   0.9436 B(  3-C ,  4-O ) :   0.8339 B(  3-C , 10-H ) :   0.9344
B(  3-C , 11-H ) :   0.9391 B( 12-C , 13-H ) :   0.9247 B( 12-C , 14-H ) :   0.9289
B( 12-C , 15-O ) :   0.8588 B( 12-C , 16-C ) :   0.8679 B( 16-C , 17-C ) :   0.9123
B( 16-C , 20-O ) :   0.8207 B( 16-C , 21-H ) :   0.9246 B( 17-C , 18-C ) :   0.9147
B( 17-C , 22-O ) :   0.8794 B( 17-C , 23-H ) :   0.9042 B( 18-C , 19-C ) :   0.9400
B( 18-C , 24-H ) :   0.9372 B( 18-C , 25-H ) :   0.9329 B( 19-C , 20-O ) :   0.8374
B( 19-C , 26-H ) :   0.9348 B( 19-C , 27-H ) :   0.9374 B( 22-O , 28-H ) :   0.7912

FINAL SINGLE POINT ENERGY      -652.846003372589

DIPOLE MOMENT
-------------
                                X             Y             Z
Electronic contribution:     -4.02702      -1.32072       1.18059
Nuclear contribution   :      4.78765       1.61802      -2.02501
                        -----------------------------------------
Total Dipole Moment    :      0.76063       0.29730      -0.84441
                        -----------------------------------------
Magnitude (a.u.)       :      1.17473
Magnitude (Debye)      :      2.98592

Rotational constants in cm-1:     0.052851     0.014094     0.012784
Rotational constants in MHz :  1584.436307   422.515695   383.241714

                             ****ORCA TERMINATED NORMALLY****
TOTAL RUN TIME: 0 days 4 hours 14 minutes 44 seconds 540 msec
