                         Program Version 4.2.0 -  RELEASE  -
|  1> # Test redundant internal optimization
|  2> #
|  3> ! RKS B3LYP  Opt TightSCF SmallPrint
|  4>
|  5> %basis
|  6>         Basis "6-31G"
|  7> end
|  8>
|  9> %geom
| 10> Constraints
| 11> { D 4  0  15  12  165.0   C } # D for Dihedral angle
| 12> { D 0  15  12  16  30.0   C } # D for Dihedral angle
| 13> { D 0  4  3  2   C } # D for Dihedral angle
| 14> { D 4  3  2  1   C } # D for Dihedral angle
| 15> { D 3  2  1  0   C } # D for Dihedral angle
| 16> { D 2  1  0  4   C } # D for Dihedral angle
| 17> { D 1  0  4  3   C } # D for Dihedral angle
| 18> { D 16  20  19  18   C } # D for Dihedral angle
| 19> { D 20  19  18  17   C } # D for Dihedral angle
| 20> { D 19  18  17  16   C } # D for Dihedral angle
| 21> { D 18  17  16  20   C } # D for Dihedral angle
| 22> { D 17  16  20  19   C } # D for Dihedral angle
| 23> { D 15  12  16  20   C } # D for Dihedral angle
| 24> end
| 25> end
| 26>
| 27>
| 28> #%pal
| 29> #nprocs 8
| 30> #end
| 31>
| 32> * xyz 0 1
| 33> C  -21.048   26.222   46.251
| 34> C  -20.361   27.558   45.944
| 35> C  -20.329   28.222   47.341
| 36> C  -20.110   27.022   48.296
| 37> O  -20.473   25.807   47.535
| 38> H  -20.833   25.428   45.533
| 39> H  -19.344   27.382   45.576
| 40> H  -20.898   28.157   45.201
| 41> H  -19.543   28.978   47.434
| 42> H  -21.289   28.710   47.548
| 43> H  -20.733   27.082   49.195
| 44> H  -19.064   26.913   48.597
| 45> C  -23.260   27.170   45.210
| 46> H  -24.289   26.812   45.084
| 47> H  -23.296   28.244   45.435
| 48> O  -22.586   26.394   46.375
| 49> C  -22.512   26.994   43.860
| 50> C  -23.135   27.863   42.761
| 51> C  -22.540   29.254   43.086
| 52> C  -21.118   28.916   43.602
| 53> O  -21.134   27.484   43.969
| 54> H  -22.456   25.931   43.617
| 55> H  -22.802   27.521   41.775
| 56> O  -24.688   27.853   42.783
| 57> H  -22.521   29.921   42.219
| 58> H  -23.129   29.742   43.872
| 59> H  -20.839   29.508   44.480
| 60> H  -20.353   29.043   42.830
| 61> H  -25.046   28.194   43.761
| 62> *
| 63>
| 64>                          ****END OF INPUT****
 Total Charge           Charge          ....    0
 Multiplicity           Mult            ....    1
 Number of Electrons    NEL             ....  102
FINAL SINGLE POINT ENERGY      -652.734283478927
FINAL SINGLE POINT ENERGY      -652.815178676298
FINAL SINGLE POINT ENERGY      -652.837395608744
FINAL SINGLE POINT ENERGY      -652.842603789812
FINAL SINGLE POINT ENERGY      -652.843409601802
FINAL SINGLE POINT ENERGY      -652.843588624092
FINAL SINGLE POINT ENERGY      -652.843609521304
FINAL SINGLE POINT ENERGY      -652.843611434272
FINAL SINGLE POINT ENERGY      -652.843600682188
FINAL SINGLE POINT ENERGY      -652.843595982585
                    ***********************HURRAY********************

CARTESIAN COORDINATES (ANGSTROEM)
---------------------------------
  C    -20.850942   26.157615   46.361430
  C    -19.951935   27.385188   46.216301
  C    -20.203611   28.133386   47.552231
  C    -20.390568   26.971984   48.551959
  O    -20.687759   25.776133   47.734406
  H    -20.586546   25.300245   45.740257
  H    -18.911241   27.040842   46.164659
  H    -20.162035   27.965557   45.323742
  H    -19.374177   28.792694   47.826113
  H    -21.115061   28.736594   47.483682
  H    -21.216672   27.132280   49.250045
  H    -19.479310   26.748406   49.116202
  C    -22.994188   27.139874   45.175416
  H    -23.985573   26.676993   45.163161
  H    -23.114735   28.190116   45.495392
  O    -22.285066   26.440233   46.232467
  C    -22.481845   27.120844   43.725015
  C    -23.386411   27.926161   42.772542
  C    -22.793964   29.365660   42.907492
  C    -21.284552   29.095179   43.084951
  O    -21.151125   27.667659   43.491476
  H    -22.413698   26.075096   43.404293
  H    -23.250002   27.557572   41.753682
  O    -24.807588   27.821848   43.009139
  H    -23.015167   29.985005   42.034539
  H    -23.220107   29.857090   43.791773
  H    -20.822928   29.727247   43.850626
  H    -20.726929   29.207950   42.151428
  H    -25.065265   28.329553   43.805579

 Multiplicity           Mult            ....    1
 Number of Electrons    NEL             ....  102
 Basis Dimension        Dim             ....  149

ORBITAL ENERGIES
----------------

  NO   OCC          E(Eh)            E(eV)
   0   2.0000     -19.158339      -521.3249
   1   2.0000     -19.155516      -521.2481
   2   2.0000     -19.129582      -520.5424
   3   2.0000     -19.126960      -520.4710
   4   2.0000     -10.271375      -279.4983
   5   2.0000     -10.255258      -279.0598
   6   2.0000     -10.243962      -278.7524
   7   2.0000     -10.241568      -278.6872
   8   2.0000     -10.234976      -278.5079
   9   2.0000     -10.216857      -278.0148
  10   2.0000     -10.205534      -277.7067
  11   2.0000     -10.179550      -276.9996
  12   2.0000     -10.168978      -276.7120
  13   2.0000      -1.047198       -28.4957
  14   2.0000      -1.039648       -28.2903
  15   2.0000      -1.028767       -27.9942
  16   2.0000      -0.978710       -26.6321
  17   2.0000      -0.793515       -21.5927
  18   2.0000      -0.776671       -21.1343
  19   2.0000      -0.772392       -21.0179
  20   2.0000      -0.730774       -19.8854
  21   2.0000      -0.684379       -18.6229
  22   2.0000      -0.623052       -16.9541
  23   2.0000      -0.605144       -16.4668
  24   2.0000      -0.590551       -16.0697
  25   2.0000      -0.561169       -15.2702
  26   2.0000      -0.534705       -14.5501
  27   2.0000      -0.518689       -14.1142
  28   2.0000      -0.495753       -13.4901
  29   2.0000      -0.479998       -13.0614
  30   2.0000      -0.473395       -12.8817
  31   2.0000      -0.457919       -12.4606
  32   2.0000      -0.446287       -12.1441
  33   2.0000      -0.439983       -11.9725
  34   2.0000      -0.432531       -11.7698
  35   2.0000      -0.425179       -11.5697
  36   2.0000      -0.408224       -11.1083
  37   2.0000      -0.397356       -10.8126
  38   2.0000      -0.390265       -10.6197
  39   2.0000      -0.366641        -9.9768
  40   2.0000      -0.360682        -9.8147
  41   2.0000      -0.354994        -9.6599
  42   2.0000      -0.343537        -9.3481
  43   2.0000      -0.337214        -9.1761
  44   2.0000      -0.323839        -8.8121
  45   2.0000      -0.304592        -8.2884
  46   2.0000      -0.290910        -7.9161
  47   2.0000      -0.282252        -7.6805
  48   2.0000      -0.252294        -6.8653
  49   2.0000      -0.249018        -6.7761
  50   2.0000      -0.239416        -6.5149
  51   0.0000       0.043791         1.1916
  52   0.0000       0.061395         1.6707
  53   0.0000       0.080829         2.1995
  54   0.0000       0.093556         2.5458
  55   0.0000       0.100846         2.7442

MULLIKEN ATOMIC CHARGES
-----------------------
   0 C :    0.315336
   1 C :   -0.285219
   2 C :   -0.306477
   3 C :    0.003212
   4 O :   -0.497203
   5 H :    0.147009
   6 H :    0.138307
   7 H :    0.182525
   8 H :    0.136304
   9 H :    0.144952
  10 H :    0.147733
  11 H :    0.140068
  12 C :    0.006608
  13 H :    0.162631
  14 H :    0.104860
  15 O :   -0.543376
  16 C :    0.072125
  17 C :    0.087593
  18 C :   -0.320999
  19 C :   -0.016146
  20 O :   -0.518861
  21 H :    0.162594
  22 H :    0.170513
  23 O :   -0.596347
  24 H :    0.163745
  25 H :    0.137134
  26 H :    0.142776
  27 H :    0.158133
  28 H :    0.360469
Sum of atomic charges:   -0.0000000

LOEWDIN ATOMIC CHARGES
----------------------
   0 C :    0.195998
   1 C :   -0.237744
   2 C :   -0.220814
   3 C :   -0.027117
   4 O :   -0.302699
   5 H :    0.101884
   6 H :    0.113454
   7 H :    0.131393
   8 H :    0.111335
   9 H :    0.108634
  10 H :    0.105670
  11 H :    0.100900
  12 C :   -0.045426
  13 H :    0.121805
  14 H :    0.079143
  15 O :   -0.347344
  16 C :    0.003998
  17 C :    0.038489
  18 C :   -0.240478
  19 C :   -0.031057
  20 O :   -0.319471
  21 H :    0.115869
  22 H :    0.120736
  23 O :   -0.402107
  24 H :    0.125717
  25 H :    0.106005
  26 H :    0.101644
  27 H :    0.110439
  28 H :    0.281144

  Mayer bond orders larger than 0.100000
B(  0-C ,  1-C ) :   0.9366 B(  0-C ,  4-O ) :   0.9331 B(  0-C ,  5-H ) :   0.9265
B(  0-C , 15-O ) :   0.8119 B(  1-C ,  2-C ) :   0.9456 B(  1-C ,  6-H ) :   0.9355
B(  1-C ,  7-H ) :   0.9026 B(  2-C ,  3-C ) :   0.9535 B(  2-C ,  8-H ) :   0.9456
B(  2-C ,  9-H ) :   0.9479 B(  3-C ,  4-O ) :   0.8381 B(  3-C , 10-H ) :   0.9358
B(  3-C , 11-H ) :   0.9396 B( 12-C , 13-H ) :   0.9113 B( 12-C , 14-H ) :   0.9191
B( 12-C , 15-O ) :   0.8636 B( 12-C , 16-C ) :   0.8955 B( 16-C , 17-C ) :   0.8659
B( 16-C , 20-O ) :   0.8464 B( 16-C , 21-H ) :   0.9287 B( 17-C , 18-C ) :   0.9205
B( 17-C , 22-H ) :   0.9331 B( 17-C , 23-O ) :   0.9073 B( 18-C , 19-C ) :   0.9421
B( 18-C , 24-H ) :   0.9408 B( 18-C , 25-H ) :   0.9398 B( 19-C , 20-O ) :   0.8344
B( 19-C , 26-H ) :   0.9285 B( 19-C , 27-H ) :   0.9380 B( 23-O , 28-H ) :   0.7953

FINAL SINGLE POINT ENERGY      -652.843595932918

DIPOLE MOMENT
-------------
                                X             Y             Z
Electronic contribution:     -2.19990      -5.62996      -0.70964
Nuclear contribution   :      2.40878       7.45718       0.13191
                        -----------------------------------------
Total Dipole Moment    :      0.20889       1.82722      -0.57773
                        -----------------------------------------
Magnitude (a.u.)       :      1.92773
Magnitude (Debye)      :      4.89989

Rotational constants in cm-1:     0.054203     0.014586     0.013037
Rotational constants in MHz :  1624.962845   437.274633   390.831165

                             ****ORCA TERMINATED NORMALLY****
TOTAL RUN TIME: 0 days 0 hours 34 minutes 14 seconds 157 msec
