                         Program Version 4.2.0 -  RELEASE  -
|  1> # Test redundant internal optimization
|  2> #
|  3> ! RKS B3LYP  Opt TightSCF SmallPrint
|  4>
|  5> %basis
|  6>         Basis "6-31G"
|  7> end
|  8>
|  9> %geom
| 10> Constraints
| 11> { D 4  0  15  12  315.0   C } # D for Dihedral angle
| 12> { D 0  15  12  16  120.0   C } # D for Dihedral angle
| 13> { D 0  4  3  2   C } # D for Dihedral angle
| 14> { D 4  3  2  1   C } # D for Dihedral angle
| 15> { D 3  2  1  0   C } # D for Dihedral angle
| 16> { D 2  1  0  4   C } # D for Dihedral angle
| 17> { D 1  0  4  3   C } # D for Dihedral angle
| 18> { D 16  20  19  18   C } # D for Dihedral angle
| 19> { D 20  19  18  17   C } # D for Dihedral angle
| 20> { D 19  18  17  16   C } # D for Dihedral angle
| 21> { D 18  17  16  20   C } # D for Dihedral angle
| 22> { D 17  16  20  19   C } # D for Dihedral angle
| 23> { D 15  12  16  20   C } # D for Dihedral angle
| 24> end
| 25> end
| 26>
| 27>
| 28> #%pal
| 29> #nprocs 8
| 30> #end
| 31>
| 32> * xyz 0 1
| 33> C  -21.048   26.222   46.251
| 34> C  -20.361   27.558   45.944
| 35> C  -20.329   28.222   47.341
| 36> C  -20.110   27.022   48.296
| 37> O  -20.473   25.807   47.535
| 38> H  -20.833   25.428   45.533
| 39> H  -19.344   27.382   45.576
| 40> H  -20.898   28.157   45.201
| 41> H  -19.543   28.978   47.434
| 42> H  -21.289   28.710   47.548
| 43> H  -20.733   27.082   49.195
| 44> H  -19.064   26.913   48.597
| 45> C  -23.319   25.255   47.135
| 46> H  -24.047   24.782   46.464
| 47> H  -22.604   24.488   47.460
| 48> O  -22.586   26.394   46.375
| 49> C  -24.073   25.762   48.395
| 50> C  -25.211   26.716   48.016
| 51> C  -26.313   25.726   47.566
| 52> C  -26.107   24.517   48.513
| 53> O  -24.745   24.648   49.073
| 54> H  -23.351   26.176   49.101
| 55> H  -25.537   27.281   48.897
| 56> O  -24.817   27.726   46.904
| 57> H  -27.319   26.149   47.641
| 58> H  -26.150   25.432   46.522
| 59> H  -26.190   23.558   47.992
| 60> H  -26.805   24.523   49.355
| 61> H  -24.488   27.181   46.013
| 62> *
| 63>
| 64>                          ****END OF INPUT****
 Total Charge           Charge          ....    0
 Multiplicity           Mult            ....    1
 Number of Electrons    NEL             ....  102
FINAL SINGLE POINT ENERGY      -652.836502432164
FINAL SINGLE POINT ENERGY      -652.860991209304
FINAL SINGLE POINT ENERGY      -652.867136272869
FINAL SINGLE POINT ENERGY      -652.869308393565
FINAL SINGLE POINT ENERGY      -652.870473156936
FINAL SINGLE POINT ENERGY      -652.871019845877
FINAL SINGLE POINT ENERGY      -652.871178207780
FINAL SINGLE POINT ENERGY      -652.871217292050
FINAL SINGLE POINT ENERGY      -652.871219607641
                    ***********************HURRAY********************

CARTESIAN COORDINATES (ANGSTROEM)
---------------------------------
  C    -21.079271   26.131720   46.270822
  C    -20.562857   27.537968   45.972233
  C    -20.586811   28.186007   47.373872
  C    -20.213359   27.020013   48.312720
  O    -20.451128   25.776408   47.519235
  H    -20.807980   25.349300   45.557228
  H    -19.541142   27.466544   45.582984
  H    -21.182894   28.063837   45.242964
  H    -19.891036   29.025786   47.459124
  H    -21.595491   28.551043   47.590762
  H    -20.820816   26.978829   49.219665
  H    -19.154870   27.009571   48.585822
  C    -23.224679   25.130384   47.099887
  H    -23.906091   24.647677   46.391253
  H    -22.504989   24.397960   47.472709
  O    -22.527021   26.208876   46.379503
  C    -23.976147   25.745076   48.285212
  C    -25.079042   26.748649   47.912507
  C    -26.250203   25.799430   47.527811
  C    -26.077082   24.614088   48.499553
  O    -24.676823   24.691258   49.016555
  H    -23.246820   26.174087   48.978340
  H    -25.354674   27.316098   48.808384
  O    -24.732970   27.711407   46.896171
  H    -27.221410   26.291755   47.626787
  H    -26.134483   25.495297   46.481776
  H    -26.222517   23.639052   48.024738
  H    -26.733956   24.683313   49.371672
  H    -23.930437   27.403566   46.412713

 Multiplicity           Mult            ....    1
 Number of Electrons    NEL             ....  102
 Basis Dimension        Dim             ....  149

ORBITAL ENERGIES
----------------

  NO   OCC          E(Eh)            E(eV)
   0   2.0000     -19.162142      -521.4284
   1   2.0000     -19.155336      -521.2432
   2   2.0000     -19.138434      -520.7833
   3   2.0000     -19.114822      -520.1408
   4   2.0000     -10.291957      -280.0584
   5   2.0000     -10.235362      -278.5184
   6   2.0000     -10.232682      -278.4454
   7   2.0000     -10.231108      -278.4026
   8   2.0000     -10.229539      -278.3599
   9   2.0000     -10.225383      -278.2468
  10   2.0000     -10.194889      -277.4170
  11   2.0000     -10.193006      -277.3658
  12   2.0000     -10.178510      -276.9713
  13   2.0000      -1.067199       -29.0400
  14   2.0000      -1.023687       -27.8559
  15   2.0000      -1.005717       -27.3670
  16   2.0000      -0.992155       -26.9979
  17   2.0000      -0.798724       -21.7344
  18   2.0000      -0.772175       -21.0120
  19   2.0000      -0.766939       -20.8695
  20   2.0000      -0.735748       -20.0207
  21   2.0000      -0.677627       -18.4392
  22   2.0000      -0.608277       -16.5521
  23   2.0000      -0.598080       -16.2746
  24   2.0000      -0.594487       -16.1768
  25   2.0000      -0.580550       -15.7976
  26   2.0000      -0.529411       -14.4060
  27   2.0000      -0.517692       -14.0871
  28   2.0000      -0.501965       -13.6592
  29   2.0000      -0.485151       -13.2016
  30   2.0000      -0.475977       -12.9520
  31   2.0000      -0.460955       -12.5432
  32   2.0000      -0.443233       -12.0610
  33   2.0000      -0.427927       -11.6445
  34   2.0000      -0.424010       -11.5379
  35   2.0000      -0.417228       -11.3533
  36   2.0000      -0.409694       -11.1483
  37   2.0000      -0.387934       -10.5562
  38   2.0000      -0.381487       -10.3808
  39   2.0000      -0.367635       -10.0038
  40   2.0000      -0.365869        -9.9558
  41   2.0000      -0.359078        -9.7710
  42   2.0000      -0.350826        -9.5465
  43   2.0000      -0.345561        -9.4032
  44   2.0000      -0.327769        -8.9190
  45   2.0000      -0.312824        -8.5124
  46   2.0000      -0.288360        -7.8467
  47   2.0000      -0.281064        -7.6481
  48   2.0000      -0.269216        -7.3257
  49   2.0000      -0.248940        -6.7740
  50   2.0000      -0.239727        -6.5233
  51   0.0000       0.058647         1.5959
  52   0.0000       0.076076         2.0701
  53   0.0000       0.092585         2.5194
  54   0.0000       0.096297         2.6204
  55   0.0000       0.103723         2.8225

MULLIKEN ATOMIC CHARGES
-----------------------
   0 C :    0.300597
   1 C :   -0.267293
   2 C :   -0.305189
   3 C :   -0.015386
   4 O :   -0.509622
   5 H :    0.157335
   6 H :    0.151719
   7 H :    0.162380
   8 H :    0.148138
   9 H :    0.168365
  10 H :    0.154070
  11 H :    0.152072
  12 C :   -0.034215
  13 H :    0.147832
  14 H :    0.184843
  15 O :   -0.568887
  16 C :    0.054732
  17 C :    0.120490
  18 C :   -0.304108
  19 C :   -0.017878
  20 O :   -0.520388
  21 H :    0.156088
  22 H :    0.146419
  23 O :   -0.644790
  24 H :    0.149824
  25 H :    0.146801
  26 H :    0.139916
  27 H :    0.149139
  28 H :    0.397000
Sum of atomic charges:   -0.0000000

LOEWDIN ATOMIC CHARGES
----------------------
   0 C :    0.179717
   1 C :   -0.215113
   2 C :   -0.217964
   3 C :   -0.029296
   4 O :   -0.322655
   5 H :    0.103427
   6 H :    0.117804
   7 H :    0.126168
   8 H :    0.117966
   9 H :    0.121096
  10 H :    0.106958
  11 H :    0.107987
  12 C :   -0.049124
  13 H :    0.105190
  14 H :    0.127916
  15 O :   -0.346469
  16 C :    0.013741
  17 C :    0.040912
  18 C :   -0.237540
  19 C :   -0.031639
  20 O :   -0.324138
  21 H :    0.111492
  22 H :    0.105004
  23 O :   -0.436909
  24 H :    0.120524
  25 H :    0.111582
  26 H :    0.101349
  27 H :    0.105836
  28 H :    0.286179

  Mayer bond orders larger than 0.100000
B(  0-C ,  1-C ) :   0.9497 B(  0-C ,  4-O ) :   0.9185 B(  0-C ,  5-H ) :   0.9232
B(  0-C , 15-O ) :   0.8148 B(  1-C ,  2-C ) :   0.9519 B(  1-C ,  6-H ) :   0.9382
B(  1-C ,  7-H ) :   0.9350 B(  2-C ,  3-C ) :   0.9545 B(  2-C ,  8-H ) :   0.9440
B(  2-C ,  9-H ) :   0.9392 B(  3-C ,  4-O ) :   0.8247 B(  3-C , 10-H ) :   0.9317
B(  3-C , 11-H ) :   0.9399 B( 12-C , 13-H ) :   0.9318 B( 12-C , 14-H ) :   0.9181
B( 12-C , 15-O ) :   0.7769 B( 12-C , 16-C ) :   0.8996 B( 16-C , 17-C ) :   0.9118
B( 16-C , 20-O ) :   0.8546 B( 16-C , 21-H ) :   0.9277 B( 17-C , 18-C ) :   0.9014
B( 17-C , 22-H ) :   0.9318 B( 17-C , 23-O ) :   0.9307 B( 18-C , 19-C ) :   0.9387
B( 18-C , 24-H ) :   0.9451 B( 18-C , 25-H ) :   0.9434 B( 19-C , 20-O ) :   0.8344
B( 19-C , 26-H ) :   0.9350 B( 19-C , 27-H ) :   0.9381 B( 23-O , 28-H ) :   0.7213

FINAL SINGLE POINT ENERGY      -652.871220681768

DIPOLE MOMENT
-------------
                                X             Y             Z
Electronic contribution:      0.23804      -2.16567       0.19315
Nuclear contribution   :      0.32472       2.27535      -0.54834
                        -----------------------------------------
Total Dipole Moment    :      0.56276       0.10968      -0.35518
                        -----------------------------------------
Magnitude (a.u.)       :      0.67445
Magnitude (Debye)      :      1.71432

Rotational constants in cm-1:     0.053650     0.015319     0.014069
Rotational constants in MHz :  1608.388515   459.239549   421.781672

                             ****ORCA TERMINATED NORMALLY****
TOTAL RUN TIME: 0 days 0 hours 41 minutes 38 seconds 542 msec
