                         Program Version 4.2.0 -  RELEASE  -
|  1> # Test redundant internal optimization
|  2> #
|  3> ! RKS B3LYP  Opt TightSCF SmallPrint
|  4>
|  5> %basis
|  6>         Basis "6-31G"
|  7> end
|  8>
|  9> %geom
| 10> Constraints
| 11> { D 4  0  15  12  210.0   C } # D for Dihedral angle
| 12> { D 0  15  12  16  165.0   C } # D for Dihedral angle
| 13> { D 0  4  3  2   C } # D for Dihedral angle
| 14> { D 4  3  2  1   C } # D for Dihedral angle
| 15> { D 3  2  1  0   C } # D for Dihedral angle
| 16> { D 2  1  0  4   C } # D for Dihedral angle
| 17> { D 1  0  4  3   C } # D for Dihedral angle
| 18> { D 16  20  19  18   C } # D for Dihedral angle
| 19> { D 20  19  18  17   C } # D for Dihedral angle
| 20> { D 19  18  17  16   C } # D for Dihedral angle
| 21> { D 18  17  16  20   C } # D for Dihedral angle
| 22> { D 17  16  20  19   C } # D for Dihedral angle
| 23> { D 15  12  16  20   C } # D for Dihedral angle
| 24> end
| 25> end
| 26>
| 27>
| 28> #%pal
| 29> #nprocs 8
| 30> #end
| 31>
| 32> * xyz 0 1
| 33> C  -21.048   26.222   46.251
| 34> C  -20.361   27.558   45.944
| 35> C  -20.329   28.222   47.341
| 36> C  -20.110   27.022   48.296
| 37> O  -20.473   25.807   47.535
| 38> H  -20.833   25.428   45.533
| 39> H  -19.344   27.382   45.576
| 40> H  -20.898   28.157   45.201
| 41> H  -19.543   28.978   47.434
| 42> H  -21.289   28.710   47.548
| 43> H  -20.733   27.082   49.195
| 44> H  -19.064   26.913   48.597
| 45> C  -23.389   26.110   45.076
| 46> H  -23.255   26.946   44.378
| 47> H  -23.024   25.196   44.591
| 48> O  -22.586   26.394   46.375
| 49> C  -24.910   25.932   45.337
| 50> C  -25.653   25.540   44.055
| 51> C  -25.336   24.029   43.959
| 52> C  -25.309   23.580   45.441
| 53> O  -25.146   24.808   46.249
| 54> H  -25.297   26.828   45.828
| 55> H  -26.730   25.702   44.179
| 56> O  -25.179   26.336   42.808
| 57> H  -26.075   23.477   43.369
| 58> H  -24.355   23.879   43.492
| 59> H  -24.481   22.896   45.657
| 60> H  -26.247   23.111   45.753
| 61> H  -24.104   26.188   42.663
| 62> *
| 63>
| 64>                          ****END OF INPUT****
 Total Charge           Charge          ....    0
 Multiplicity           Mult            ....    1
 Number of Electrons    NEL             ....  102
FINAL SINGLE POINT ENERGY      -652.824799930390
FINAL SINGLE POINT ENERGY      -652.848926589988
FINAL SINGLE POINT ENERGY      -652.853259602567
FINAL SINGLE POINT ENERGY      -652.854087881555
FINAL SINGLE POINT ENERGY      -652.854253981214
FINAL SINGLE POINT ENERGY      -652.854283075367
FINAL SINGLE POINT ENERGY      -652.854287762079
FINAL SINGLE POINT ENERGY      -652.854287879355
                    ***********************HURRAY********************

CARTESIAN COORDINATES (ANGSTROEM)
---------------------------------
  C    -21.044523   26.213982   46.181242
  C    -20.374289   27.566224   45.947812
  C    -20.454626   28.210484   47.352507
  C    -20.273141   27.002935   48.296273
  O    -20.559843   25.801240   47.467721
  H    -20.782612   25.427197   45.464561
  H    -19.330916   27.411760   45.647108
  H    -20.873407   28.159588   45.176035
  H    -19.693763   28.981317   47.506529
  H    -21.441328   28.661842   47.492446
  H    -20.960674   27.010948   49.145172
  H    -19.246426   26.894829   48.658531
  C    -23.200657   26.098023   45.015451
  H    -23.090874   26.936971   44.310445
  H    -22.794351   25.190353   44.537820
  O    -22.488901   26.355779   46.247699
  C    -24.680690   25.922494   45.347444
  C    -25.556588   25.599680   44.125551
  C    -25.371143   24.058010   43.996598
  C    -25.261868   23.605367   45.469029
  O    -24.933976   24.817098   46.262816
  H    -25.017529   26.822736   45.869357
  H    -26.596922   25.840214   44.354492
  O    -25.259028   26.355905   42.925865
  H    -26.199751   23.583902   43.464113
  H    -24.447111   23.846180   43.441073
  H    -24.483007   22.853306   45.628935
  H    -26.209793   23.218128   45.854378
  H    -24.473261   25.986507   42.473995

 Multiplicity           Mult            ....    1
 Number of Electrons    NEL             ....  102
 Basis Dimension        Dim             ....  149

ORBITAL ENERGIES
----------------

  NO   OCC          E(Eh)            E(eV)
   0   2.0000     -19.151565      -521.1406
   1   2.0000     -19.137586      -520.7602
   2   2.0000     -19.135759      -520.7105
   3   2.0000     -19.135013      -520.6902
   4   2.0000     -10.276783      -279.6455
   5   2.0000     -10.245786      -278.8020
   6   2.0000     -10.232746      -278.4472
   7   2.0000     -10.230034      -278.3734
   8   2.0000     -10.229054      -278.3467
   9   2.0000     -10.220630      -278.1175
  10   2.0000     -10.196826      -277.4697
  11   2.0000     -10.184024      -277.1214
  12   2.0000     -10.182825      -277.0887
  13   2.0000      -1.050809       -28.5940
  14   2.0000      -1.034225       -28.1427
  15   2.0000      -1.015368       -27.6296
  16   2.0000      -0.992179       -26.9986
  17   2.0000      -0.785043       -21.3621
  18   2.0000      -0.782028       -21.2801
  19   2.0000      -0.767252       -20.8780
  20   2.0000      -0.728281       -19.8175
  21   2.0000      -0.680165       -18.5082
  22   2.0000      -0.612266       -16.6606
  23   2.0000      -0.596690       -16.2368
  24   2.0000      -0.587789       -15.9946
  25   2.0000      -0.579045       -15.7566
  26   2.0000      -0.528627       -14.3847
  27   2.0000      -0.510397       -13.8886
  28   2.0000      -0.499919       -13.6035
  29   2.0000      -0.487322       -13.2607
  30   2.0000      -0.465770       -12.6742
  31   2.0000      -0.459227       -12.4962
  32   2.0000      -0.449965       -12.2442
  33   2.0000      -0.432164       -11.7598
  34   2.0000      -0.429541       -11.6884
  35   2.0000      -0.418389       -11.3849
  36   2.0000      -0.404415       -11.0047
  37   2.0000      -0.396769       -10.7966
  38   2.0000      -0.378809       -10.3079
  39   2.0000      -0.369824       -10.0634
  40   2.0000      -0.355307        -9.6684
  41   2.0000      -0.352884        -9.6025
  42   2.0000      -0.349006        -9.4969
  43   2.0000      -0.330573        -8.9954
  44   2.0000      -0.315921        -8.5966
  45   2.0000      -0.308057        -8.3827
  46   2.0000      -0.305481        -8.3125
  47   2.0000      -0.272115        -7.4046
  48   2.0000      -0.258258        -7.0276
  49   2.0000      -0.246240        -6.7005
  50   2.0000      -0.240092        -6.5332
  51   0.0000       0.048928         1.3314
  52   0.0000       0.073955         2.0124
  53   0.0000       0.087419         2.3788
  54   0.0000       0.091749         2.4966
  55   0.0000       0.107560         2.9269

MULLIKEN ATOMIC CHARGES
-----------------------
   0 C :    0.299280
   1 C :   -0.264769
   2 C :   -0.299241
   3 C :   -0.001373
   4 O :   -0.500964
   5 H :    0.132189
   6 H :    0.141690
   7 H :    0.142098
   8 H :    0.140487
   9 H :    0.163291
  10 H :    0.157407
  11 H :    0.139291
  12 C :   -0.009361
  13 H :    0.130655
  14 H :    0.109622
  15 O :   -0.502617
  16 C :    0.102768
  17 C :    0.081908
  18 C :   -0.325806
  19 C :   -0.011438
  20 O :   -0.499600
  21 H :    0.163926
  22 H :    0.167885
  23 O :   -0.601394
  24 H :    0.159063
  25 H :    0.131218
  26 H :    0.149906
  27 H :    0.148480
  28 H :    0.355397
Sum of atomic charges:   -0.0000000

LOEWDIN ATOMIC CHARGES
----------------------
   0 C :    0.178713
   1 C :   -0.228427
   2 C :   -0.216711
   3 C :   -0.025184
   4 O :   -0.305110
   5 H :    0.093377
   6 H :    0.111982
   7 H :    0.114202
   8 H :    0.113623
   9 H :    0.119781
  10 H :    0.110993
  11 H :    0.101180
  12 C :   -0.049812
  13 H :    0.093206
  14 H :    0.083206
  15 O :   -0.319027
  16 C :    0.023989
  17 C :    0.034989
  18 C :   -0.241815
  19 C :   -0.029990
  20 O :   -0.308444
  21 H :    0.120348
  22 H :    0.119601
  23 O :   -0.408734
  24 H :    0.122881
  25 H :    0.102379
  26 H :    0.105437
  27 H :    0.105954
  28 H :    0.277414

  Mayer bond orders larger than 0.100000
B(  0-C ,  1-C ) :   0.9320 B(  0-C ,  4-O ) :   0.9380 B(  0-C ,  5-H ) :   0.9182
B(  0-C , 15-O ) :   0.8368 B(  1-C ,  2-C ) :   0.9554 B(  1-C ,  6-H ) :   0.9347
B(  1-C ,  7-H ) :   0.9377 B(  2-C ,  3-C ) :   0.9553 B(  2-C ,  8-H ) :   0.9452
B(  2-C ,  9-H ) :   0.9434 B(  3-C ,  4-O ) :   0.8369 B(  3-C , 10-H ) :   0.9338
B(  3-C , 11-H ) :   0.9398 B( 12-C , 13-H ) :   0.9006 B( 12-C , 14-H ) :   0.9122
B( 12-C , 15-O ) :   0.8508 B( 12-C , 16-C ) :   0.9039 B( 16-C , 17-C ) :   0.8727
B( 16-C , 20-O ) :   0.8779 B( 16-C , 21-H ) :   0.9298 B( 17-C , 18-C ) :   0.9260
B( 17-C , 22-H ) :   0.9334 B( 17-C , 23-O ) :   0.8937 B( 18-C , 19-C ) :   0.9378
B( 18-C , 24-H ) :   0.9416 B( 18-C , 25-H ) :   0.9399 B( 19-C , 20-O ) :   0.8520
B( 19-C , 26-H ) :   0.9306 B( 19-C , 27-H ) :   0.9377 B( 23-O , 28-H ) :   0.7995

FINAL SINGLE POINT ENERGY      -652.854287848204

DIPOLE MOMENT
-------------
                                X             Y             Z
Electronic contribution:     -2.34815      -1.28603       1.29511
Nuclear contribution   :      2.84194       1.28981      -2.41216
                        -----------------------------------------
Total Dipole Moment    :      0.49379       0.00378      -1.11705
                        -----------------------------------------
Magnitude (a.u.)       :      1.22133
Magnitude (Debye)      :      3.10437

Rotational constants in cm-1:     0.057527     0.012210     0.010998
Rotational constants in MHz :  1724.610493   366.047099   329.707833

                             ****ORCA TERMINATED NORMALLY****
TOTAL RUN TIME: 0 days 0 hours 22 minutes 26 seconds 232 msec
