                         Program Version 4.2.0 -  RELEASE  -
|  1> # Test redundant internal optimization
|  2> #
|  3> ! RKS B3LYP  Opt TightSCF SmallPrint
|  4>
|  5> %basis
|  6>         Basis "6-31G"
|  7> end
|  8>
|  9> %geom
| 10> Constraints
| 11> { D 4  0  15  12  345.0   C } # D for Dihedral angle
| 12> { D 0  15  12  16  225.0   C } # D for Dihedral angle
| 13> { D 0  4  3  2   C } # D for Dihedral angle
| 14> { D 4  3  2  1   C } # D for Dihedral angle
| 15> { D 3  2  1  0   C } # D for Dihedral angle
| 16> { D 2  1  0  4   C } # D for Dihedral angle
| 17> { D 1  0  4  3   C } # D for Dihedral angle
| 18> { D 16  20  19  18   C } # D for Dihedral angle
| 19> { D 20  19  18  17   C } # D for Dihedral angle
| 20> { D 19  18  17  16   C } # D for Dihedral angle
| 21> { D 18  17  16  20   C } # D for Dihedral angle
| 22> { D 17  16  20  19   C } # D for Dihedral angle
| 23> { D 15  12  16  20   C } # D for Dihedral angle
| 24> end
| 25> end
| 26>
| 27>
| 28> #%pal
| 29> #nprocs 8
| 30> #end
| 31>
| 32> * xyz 0 1
| 33> C  -21.048   26.222   46.251
| 34> C  -20.361   27.558   45.944
| 35> C  -20.329   28.222   47.341
| 36> C  -20.110   27.022   48.296
| 37> O  -20.473   25.807   47.535
| 38> H  -20.833   25.428   45.533
| 39> H  -19.344   27.382   45.576
| 40> H  -20.898   28.157   45.201
| 41> H  -19.543   28.978   47.434
| 42> H  -21.289   28.710   47.548
| 43> H  -20.733   27.082   49.195
| 44> H  -19.064   26.913   48.597
| 45> C  -23.221   25.764   47.645
| 46> H  -22.499   25.081   48.110
| 47> H  -23.474   26.544   48.375
| 48> O  -22.586   26.394   46.375
| 49> C  -24.518   24.967   47.336
| 50> C  -24.226   23.749   46.453
| 51> C  -23.668   22.740   47.484
| 52> C  -24.491   23.051   48.760
| 53> O  -25.074   24.396   48.567
| 54> H  -25.269   25.649   46.933
| 55> H  -25.156   23.375   46.009
| 56> O  -23.225   24.054   45.305
| 57> H  -23.776   21.700   47.161
| 58> H  -22.602   22.929   47.656
| 59> H  -23.875   23.053   49.666
| 60> H  -25.323   22.355   48.900
| 61> H  -22.286   24.430   45.726
| 62> *
| 63>
| 64>                          ****END OF INPUT****
 Total Charge           Charge          ....    0
 Multiplicity           Mult            ....    1
 Number of Electrons    NEL             ....  102
FINAL SINGLE POINT ENERGY      -652.823871689364
FINAL SINGLE POINT ENERGY      -652.849509884500
FINAL SINGLE POINT ENERGY      -652.855938461449
FINAL SINGLE POINT ENERGY      -652.858449885542
FINAL SINGLE POINT ENERGY      -652.859651912504
FINAL SINGLE POINT ENERGY      -652.860821529456
FINAL SINGLE POINT ENERGY      -652.862016689920
FINAL SINGLE POINT ENERGY      -652.862906296068
FINAL SINGLE POINT ENERGY      -652.863648522897
FINAL SINGLE POINT ENERGY      -652.863913735367
FINAL SINGLE POINT ENERGY      -652.864136602534
FINAL SINGLE POINT ENERGY      -652.864167098947
FINAL SINGLE POINT ENERGY      -652.864174663202
                    ***********************HURRAY********************

CARTESIAN COORDINATES (ANGSTROEM)
---------------------------------
  C    -21.011832   26.155738   46.367621
  C    -20.427611   27.511565   45.978860
  C    -20.369771   28.232561   47.343005
  C    -20.032220   27.098243   48.332317
  O    -20.366328   25.831226   47.611382
  H    -20.804042   25.324764   45.690256
  H    -19.424289   27.363916   45.563125
  H    -21.045445   28.031481   45.243690
  H    -19.624996   29.033895   47.363320
  H    -21.346889   28.669767   47.570905
  H    -20.614046   27.135855   49.256373
  H    -18.968073   27.039146   48.574521
  C    -23.134543   25.754022   47.687047
  H    -22.427168   25.129722   48.237776
  H    -23.431515   26.594521   48.322264
  O    -22.479754   26.284293   46.475510
  C    -24.383391   24.959743   47.285786
  C    -24.128227   23.709980   46.429532
  C    -23.668424   22.683080   47.500558
  C    -24.516499   23.058764   48.734100
  O    -25.017126   24.444035   48.498211
  H    -25.108532   25.631600   46.816201
  H    -25.082047   23.385036   45.993861
  O    -23.162131   23.875498   45.366255
  H    -23.828778   21.651169   47.176135
  H    -22.596459   22.820423   47.676242
  H    -23.946793   23.044363   49.668393
  H    -25.399964   22.424269   48.848882
  H    -22.947106   24.833328   45.299874

 Multiplicity           Mult            ....    1
 Number of Electrons    NEL             ....  102
 Basis Dimension        Dim             ....  149

ORBITAL ENERGIES
----------------

  NO   OCC          E(Eh)            E(eV)
   0   2.0000     -19.160475      -521.3830
   1   2.0000     -19.155950      -521.2599
   2   2.0000     -19.138105      -520.7743
   3   2.0000     -19.119456      -520.2668
   4   2.0000     -10.289073      -279.9799
   5   2.0000     -10.238957      -278.6162
   6   2.0000     -10.230711      -278.3918
   7   2.0000     -10.229755      -278.3658
   8   2.0000     -10.228485      -278.3312
   9   2.0000     -10.224474      -278.2221
  10   2.0000     -10.196334      -277.4563
  11   2.0000     -10.193585      -277.3815
  12   2.0000     -10.177357      -276.9400
  13   2.0000      -1.064615       -28.9696
  14   2.0000      -1.024601       -27.8808
  15   2.0000      -1.004234       -27.3266
  16   2.0000      -0.993327       -27.0298
  17   2.0000      -0.798881       -21.7387
  18   2.0000      -0.772433       -21.0190
  19   2.0000      -0.766074       -20.8459
  20   2.0000      -0.736371       -20.0377
  21   2.0000      -0.674485       -18.3537
  22   2.0000      -0.610702       -16.6180
  23   2.0000      -0.598908       -16.2971
  24   2.0000      -0.593764       -16.1571
  25   2.0000      -0.572527       -15.5793
  26   2.0000      -0.524996       -14.2859
  27   2.0000      -0.518251       -14.1023
  28   2.0000      -0.501955       -13.6589
  29   2.0000      -0.490359       -13.3433
  30   2.0000      -0.472563       -12.8591
  31   2.0000      -0.458139       -12.4666
  32   2.0000      -0.443124       -12.0580
  33   2.0000      -0.432822       -11.7777
  34   2.0000      -0.425609       -11.5814
  35   2.0000      -0.413852       -11.2615
  36   2.0000      -0.407729       -11.0949
  37   2.0000      -0.384213       -10.4550
  38   2.0000      -0.381318       -10.3762
  39   2.0000      -0.369499       -10.0546
  40   2.0000      -0.366081        -9.9616
  41   2.0000      -0.358091        -9.7442
  42   2.0000      -0.352528        -9.5928
  43   2.0000      -0.338860        -9.2208
  44   2.0000      -0.333249        -9.0682
  45   2.0000      -0.313558        -8.5323
  46   2.0000      -0.290193        -7.8966
  47   2.0000      -0.276284        -7.5181
  48   2.0000      -0.269559        -7.3351
  49   2.0000      -0.249695        -6.7946
  50   2.0000      -0.239785        -6.5249
  51   0.0000       0.059205         1.6111
  52   0.0000       0.075036         2.0418
  53   0.0000       0.095665         2.6032
  54   0.0000       0.100256         2.7281
  55   0.0000       0.102558         2.7907

MULLIKEN ATOMIC CHARGES
-----------------------
   0 C :    0.287420
   1 C :   -0.256319
   2 C :   -0.306627
   3 C :   -0.016783
   4 O :   -0.509595
   5 H :    0.168570
   6 H :    0.149732
   7 H :    0.162687
   8 H :    0.150133
   9 H :    0.161322
  10 H :    0.151539
  11 H :    0.154667
  12 C :   -0.020867
  13 H :    0.174888
  14 H :    0.150389
  15 O :   -0.566079
  16 C :    0.040025
  17 C :    0.123392
  18 C :   -0.306229
  19 C :   -0.018822
  20 O :   -0.520983
  21 H :    0.157166
  22 H :    0.139677
  23 O :   -0.639686
  24 H :    0.149524
  25 H :    0.162704
  26 H :    0.141844
  27 H :    0.148999
  28 H :    0.387312
Sum of atomic charges:   -0.0000000

LOEWDIN ATOMIC CHARGES
----------------------
   0 C :    0.176967
   1 C :   -0.216473
   2 C :   -0.217593
   3 C :   -0.030380
   4 O :   -0.312597
   5 H :    0.108998
   6 H :    0.116447
   7 H :    0.127004
   8 H :    0.118883
   9 H :    0.118304
  10 H :    0.107122
  11 H :    0.109609
  12 C :   -0.050194
  13 H :    0.117939
  14 H :    0.107686
  15 O :   -0.357319
  16 C :    0.013669
  17 C :    0.041066
  18 C :   -0.232887
  19 C :   -0.031398
  20 O :   -0.323408
  21 H :    0.112042
  22 H :    0.099340
  23 O :   -0.434401
  24 H :    0.120156
  25 H :    0.119328
  26 H :    0.101973
  27 H :    0.105622
  28 H :    0.284494

  Mayer bond orders larger than 0.100000
B(  0-C ,  1-C ) :   0.9394 B(  0-C ,  4-O ) :   0.9223 B(  0-C ,  5-H ) :   0.9181
B(  0-C , 15-O ) :   0.7982 B(  1-C ,  2-C ) :   0.9522 B(  1-C ,  6-H ) :   0.9355
B(  1-C ,  7-H ) :   0.9352 B(  2-C ,  3-C ) :   0.9555 B(  2-C ,  8-H ) :   0.9442
B(  2-C ,  9-H ) :   0.9446 B(  3-C ,  4-O ) :   0.8213 B(  3-C , 10-H ) :   0.9343
B(  3-C , 11-H ) :   0.9401 B( 12-C , 13-H ) :   0.9083 B( 12-C , 14-H ) :   0.9305
B( 12-C , 15-O ) :   0.7885 B( 12-C , 16-C ) :   0.9024 B( 16-C , 17-C ) :   0.9165
B( 16-C , 20-O ) :   0.8548 B( 16-C , 21-H ) :   0.9298 B( 17-C , 18-C ) :   0.9135
B( 17-C , 22-H ) :   0.9252 B( 17-C , 23-O ) :   0.9176 B( 18-C , 19-C ) :   0.9405
B( 18-C , 24-H ) :   0.9449 B( 18-C , 25-H ) :   0.9384 B( 19-C , 20-O ) :   0.8348
B( 19-C , 26-H ) :   0.9344 B( 19-C , 27-H ) :   0.9382 B( 23-O , 28-H ) :   0.7308

FINAL SINGLE POINT ENERGY      -652.864176741725

DIPOLE MOMENT
-------------
                                X             Y             Z
Electronic contribution:     -2.64348      -1.53565      -1.64762
Nuclear contribution   :      3.42120       2.40200       2.05087
                        -----------------------------------------
Total Dipole Moment    :      0.77772       0.86635       0.40325
                        -----------------------------------------
Magnitude (a.u.)       :      1.23208
Magnitude (Debye)      :      3.13171

Rotational constants in cm-1:     0.053444     0.014853     0.013779
Rotational constants in MHz :  1602.212390   445.270411   413.085415

                             ****ORCA TERMINATED NORMALLY****
TOTAL RUN TIME: 0 days 1 hours 33 minutes 48 seconds 128 msec
