                         Program Version 4.2.0 -  RELEASE  -
|  1> # Test redundant internal optimization
|  2> #
|  3> ! RKS B3LYP  Opt TightSCF SmallPrint
|  4>
|  5> %basis
|  6>         Basis "6-31G"
|  7> end
|  8>
|  9> %geom
| 10> Constraints
| 11> { D 4  0  15  12  60.0   C } # D for Dihedral angle
| 12> { D 0  15  12  16  105.0   C } # D for Dihedral angle
| 13> { D 0  4  3  2   C } # D for Dihedral angle
| 14> { D 4  3  2  1   C } # D for Dihedral angle
| 15> { D 3  2  1  0   C } # D for Dihedral angle
| 16> { D 2  1  0  4   C } # D for Dihedral angle
| 17> { D 1  0  4  3   C } # D for Dihedral angle
| 18> { D 16  20  19  18   C } # D for Dihedral angle
| 19> { D 20  19  18  17   C } # D for Dihedral angle
| 20> { D 19  18  17  16   C } # D for Dihedral angle
| 21> { D 18  17  16  20   C } # D for Dihedral angle
| 22> { D 17  16  20  19   C } # D for Dihedral angle
| 23> { D 15  12  16  20   C } # D for Dihedral angle
| 24> end
| 25> end
| 26>
| 27>
| 28> #%pal
| 29> #nprocs 8
| 30> #end
| 31>
| 32> * xyz 0 1
| 33> C  -21.048   26.222   46.251
| 34> C  -20.361   27.558   45.944
| 35> C  -20.329   28.222   47.341
| 36> C  -20.110   27.022   48.296
| 37> O  -20.473   25.807   47.535
| 38> H  -20.833   25.428   45.533
| 39> H  -19.344   27.382   45.576
| 40> H  -20.898   28.157   45.201
| 41> H  -19.543   28.978   47.434
| 42> H  -21.289   28.710   47.548
| 43> H  -20.733   27.082   49.195
| 44> H  -19.064   26.913   48.597
| 45> C  -23.051   27.452   47.413
| 46> H  -23.868   27.034   48.015
| 47> H  -22.227   27.714   48.089
| 48> O  -22.586   26.394   46.375
| 49> C  -23.554   28.764   46.750
| 50> C  -23.894   29.824   47.803
| 51> C  -22.492   30.365   48.168
| 52> C  -21.729   30.302   46.821
| 53> O  -22.487   29.377   45.952
| 54> H  -24.371   28.528   46.065
| 55> O  -24.766   30.943   47.170
| 56> H  -24.430   29.416   48.667
| 57> H  -22.522   31.378   48.583
| 58> H  -22.018   29.713   48.911
| 59> H  -20.705   29.928   46.936
| 60> H  -21.698   31.270   46.313
| 61> H  -24.248   31.367   46.302
| 62> *
| 63>
| 64>                          ****END OF INPUT****
 Total Charge           Charge          ....    0
 Multiplicity           Mult            ....    1
 Number of Electrons    NEL             ....  102
FINAL SINGLE POINT ENERGY      -652.751160005857
FINAL SINGLE POINT ENERGY      -652.820665437281
FINAL SINGLE POINT ENERGY      -652.843930442257
FINAL SINGLE POINT ENERGY      -652.850952360093
FINAL SINGLE POINT ENERGY      -652.852388397649
FINAL SINGLE POINT ENERGY      -652.852870395925
FINAL SINGLE POINT ENERGY      -652.852954774314
FINAL SINGLE POINT ENERGY      -652.852987115453
FINAL SINGLE POINT ENERGY      -652.852990718504
                    ***********************HURRAY********************

CARTESIAN COORDINATES (ANGSTROEM)
---------------------------------
  C    -21.170493   26.244653   46.346487
  C    -20.167615   27.314013   45.897876
  C    -19.709758   27.916840   47.253874
  C    -19.719606   26.683010   48.192168
  O    -20.555346   25.662774   47.520274
  H    -21.266572   25.431141   45.626031
  H    -19.334249   26.816336   45.390187
  H    -20.617924   28.055580   45.236959
  H    -18.721691   28.384537   47.200444
  H    -20.423228   28.667598   47.589965
  H    -20.138446   26.893787   49.181649
  H    -18.723821   26.246694   48.316723
  C    -23.092707   27.567008   47.468240
  H    -24.009250   27.110021   47.857069
  H    -22.409394   27.714370   48.315801
  O    -22.554519   26.616532   46.514149
  C    -23.483621   28.891078   46.797537
  C    -24.139892   29.934174   47.715695
  C    -22.905591   30.716258   48.237185
  C    -21.946531   30.714945   47.021534
  O    -22.416682   29.629714   46.116994
  H    -24.182675   28.621066   45.996868
  O    -25.044606   30.793424   46.971278
  H    -24.743798   29.502441   48.515135
  H    -23.189226   31.721079   48.557253
  H    -22.462288   30.192063   49.092176
  H    -20.904682   30.539934   47.296320
  H    -22.001112   31.645307   46.447744
  H    -24.635675   31.023626   46.110386

 Multiplicity           Mult            ....    1
 Number of Electrons    NEL             ....  102
 Basis Dimension        Dim             ....  149

ORBITAL ENERGIES
----------------

  NO   OCC          E(Eh)            E(eV)
   0   2.0000     -19.155510      -521.2479
   1   2.0000     -19.144539      -520.9494
   2   2.0000     -19.139035      -520.7996
   3   2.0000     -19.138109      -520.7744
   4   2.0000     -10.274535      -279.5843
   5   2.0000     -10.249678      -278.9079
   6   2.0000     -10.239817      -278.6396
   7   2.0000     -10.238608      -278.6067
   8   2.0000     -10.238480      -278.6032
   9   2.0000     -10.227188      -278.2959
  10   2.0000     -10.197588      -277.4905
  11   2.0000     -10.188041      -277.2307
  12   2.0000     -10.178377      -276.9677
  13   2.0000      -1.049471       -28.5576
  14   2.0000      -1.042239       -28.3608
  15   2.0000      -1.013443       -27.5772
  16   2.0000      -0.992421       -27.0051
  17   2.0000      -0.792160       -21.5558
  18   2.0000      -0.783410       -21.3177
  19   2.0000      -0.775861       -21.1123
  20   2.0000      -0.734733       -19.9931
  21   2.0000      -0.681803       -18.5528
  22   2.0000      -0.612886       -16.6775
  23   2.0000      -0.605249       -16.4697
  24   2.0000      -0.599295       -16.3077
  25   2.0000      -0.574892       -15.6436
  26   2.0000      -0.527143       -14.3443
  27   2.0000      -0.516174       -14.0458
  28   2.0000      -0.503486       -13.7005
  29   2.0000      -0.486372       -13.2348
  30   2.0000      -0.478070       -13.0089
  31   2.0000      -0.463515       -12.6129
  32   2.0000      -0.452230       -12.3058
  33   2.0000      -0.446585       -12.1522
  34   2.0000      -0.424133       -11.5413
  35   2.0000      -0.416367       -11.3299
  36   2.0000      -0.407435       -11.0869
  37   2.0000      -0.400758       -10.9052
  38   2.0000      -0.381123       -10.3709
  39   2.0000      -0.375428       -10.2159
  40   2.0000      -0.364060        -9.9066
  41   2.0000      -0.354562        -9.6481
  42   2.0000      -0.345331        -9.3969
  43   2.0000      -0.337134        -9.1739
  44   2.0000      -0.316805        -8.6207
  45   2.0000      -0.313405        -8.5282
  46   2.0000      -0.299719        -8.1558
  47   2.0000      -0.278452        -7.5771
  48   2.0000      -0.270026        -7.3478
  49   2.0000      -0.257490        -7.0067
  50   2.0000      -0.240937        -6.5562
  51   0.0000       0.052344         1.4244
  52   0.0000       0.074737         2.0337
  53   0.0000       0.086122         2.3435
  54   0.0000       0.090873         2.4728
  55   0.0000       0.098665         2.6848

MULLIKEN ATOMIC CHARGES
-----------------------
   0 C :    0.307220
   1 C :   -0.271929
   2 C :   -0.321693
   3 C :   -0.012222
   4 O :   -0.508793
   5 H :    0.165955
   6 H :    0.144226
   7 H :    0.181083
   8 H :    0.139514
   9 H :    0.148623
  10 H :    0.137172
  11 H :    0.146139
  12 C :   -0.012291
  13 H :    0.156114
  14 H :    0.127737
  15 O :   -0.524983
  16 C :    0.074141
  17 C :    0.075220
  18 C :   -0.291734
  19 C :   -0.037752
  20 O :   -0.520967
  21 H :    0.173065
  22 O :   -0.600616
  23 H :    0.154745
  24 H :    0.166416
  25 H :    0.140840
  26 H :    0.148116
  27 H :    0.149266
  28 H :    0.367387
Sum of atomic charges:   -0.0000000

LOEWDIN ATOMIC CHARGES
----------------------
   0 C :    0.182510
   1 C :   -0.230188
   2 C :   -0.224247
   3 C :   -0.035711
   4 O :   -0.322098
   5 H :    0.113940
   6 H :    0.115602
   7 H :    0.134635
   8 H :    0.114205
   9 H :    0.107850
  10 H :    0.096983
  11 H :    0.103462
  12 C :   -0.036931
  13 H :    0.117276
  14 H :    0.094264
  15 O :   -0.322105
  16 C :    0.005388
  17 C :    0.036070
  18 C :   -0.238980
  19 C :   -0.042689
  20 O :   -0.325615
  21 H :    0.120058
  22 O :   -0.412648
  23 H :    0.117029
  24 H :    0.129078
  25 H :    0.111519
  26 H :    0.102591
  27 H :    0.104164
  28 H :    0.284589

  Mayer bond orders larger than 0.100000
B(  0-C ,  1-C ) :   0.9200 B(  0-C ,  4-O ) :   0.9015 B(  0-C ,  5-H ) :   0.9360
B(  0-C , 15-O ) :   0.8862 B(  1-C ,  2-C ) :   0.9602 B(  1-C ,  6-H ) :   0.9325
B(  1-C ,  7-H ) :   0.9201 B(  2-C ,  3-C ) :   0.9463 B(  2-C ,  8-H ) :   0.9467
B(  2-C ,  9-H ) :   0.9276 B(  3-C ,  4-O ) :   0.8462 B(  3-C , 10-H ) :   0.9334
B(  3-C , 11-H ) :   0.9387 B( 12-C , 13-H ) :   0.9239 B( 12-C , 14-H ) :   0.9202
B( 12-C , 15-O ) :   0.8513 B( 12-C , 16-C ) :   0.8885 B( 16-C , 17-C ) :   0.8911
B( 16-C , 20-O ) :   0.8527 B( 16-C , 21-H ) :   0.9217 B( 17-C , 18-C ) :   0.9112
B( 17-C , 22-O ) :   0.8954 B( 17-C , 23-H ) :   0.9336 B( 18-C , 19-C ) :   0.9419
B( 18-C , 24-H ) :   0.9369 B( 18-C , 25-H ) :   0.9348 B( 19-C , 20-O ) :   0.8425
B( 19-C , 26-H ) :   0.9209 B( 19-C , 27-H ) :   0.9385 B( 22-O , 28-H ) :   0.7933

FINAL SINGLE POINT ENERGY      -652.852990135832

DIPOLE MOMENT
-------------
                                X             Y             Z
Electronic contribution:     -4.38909      -3.25452      -2.77721
Nuclear contribution   :      5.28735       4.34099       3.31069
                        -----------------------------------------
Total Dipole Moment    :      0.89825       1.08647       0.53348
                        -----------------------------------------
Magnitude (a.u.)       :      1.50727
Magnitude (Debye)      :      3.83118

Rotational constants in cm-1:     0.052619     0.015966     0.014584
Rotational constants in MHz :  1577.491797   478.651166   437.225474

                             ****ORCA TERMINATED NORMALLY****
TOTAL RUN TIME: 0 days 0 hours 33 minutes 26 seconds 887 msec
