                         Program Version 4.2.0 -  RELEASE  -
|  1> # Test redundant internal optimization
|  2> #
|  3> ! RKS B3LYP  Opt TightSCF SmallPrint
|  4>
|  5> %basis
|  6>         Basis "6-31G"
|  7> end
|  8>
|  9> %geom
| 10> Constraints
| 11> { D 4  0  15  12  30.0   C } # D for Dihedral angle
| 12> { D 0  15  12  16  120.0   C } # D for Dihedral angle
| 13> { D 0  4  3  2   C } # D for Dihedral angle
| 14> { D 4  3  2  1   C } # D for Dihedral angle
| 15> { D 3  2  1  0   C } # D for Dihedral angle
| 16> { D 2  1  0  4   C } # D for Dihedral angle
| 17> { D 1  0  4  3   C } # D for Dihedral angle
| 18> { D 16  20  19  18   C } # D for Dihedral angle
| 19> { D 20  19  18  17   C } # D for Dihedral angle
| 20> { D 19  18  17  16   C } # D for Dihedral angle
| 21> { D 18  17  16  20   C } # D for Dihedral angle
| 22> { D 17  16  20  19   C } # D for Dihedral angle
| 23> { D 15  12  16  20   C } # D for Dihedral angle
| 24> end
| 25> end
| 26>
| 27>
| 28> #%pal
| 29> #nprocs 8
| 30> #end
| 31>
| 32> * xyz 0 1
| 33> C  -21.048   26.222   46.251
| 34> C  -20.361   27.558   45.944
| 35> C  -20.329   28.222   47.341
| 36> C  -20.110   27.022   48.296
| 37> O  -20.473   25.807   47.535
| 38> H  -20.833   25.428   45.533
| 39> H  -19.344   27.382   45.576
| 40> H  -20.898   28.157   45.201
| 41> H  -19.543   28.978   47.434
| 42> H  -21.289   28.710   47.548
| 43> H  -20.733   27.082   49.195
| 44> H  -19.064   26.913   48.597
| 45> C  -23.091   26.824   47.779
| 46> H  -23.767   26.054   48.172
| 47> H  -22.249   26.928   48.475
| 48> O  -22.586   26.394   46.375
| 49> C  -23.854   28.177   47.755
| 50> C  -23.000   29.287   47.132
| 51> C  -23.159   28.994   45.620
| 52> C  -24.617   28.483   45.513
| 53> O  -25.027   28.089   46.878
| 54> H  -24.221   28.399   48.758
| 55> O  -23.593   30.678   47.485
| 56> H  -21.955   29.263   47.461
| 57> H  -22.978   29.874   44.995
| 58> H  -22.453   28.214   45.312
| 59> H  -24.712   27.620   44.846
| 60> H  -25.310   29.263   45.182
| 61> H  -24.639   30.725   47.163
| 62> *
| 63>
| 64>                          ****END OF INPUT****
 Total Charge           Charge          ....    0
 Multiplicity           Mult            ....    1
 Number of Electrons    NEL             ....  102
FINAL SINGLE POINT ENERGY      -652.741770527728
FINAL SINGLE POINT ENERGY      -652.818811535471
FINAL SINGLE POINT ENERGY      -652.841427898674
FINAL SINGLE POINT ENERGY      -652.847767351792
FINAL SINGLE POINT ENERGY      -652.848937953660
FINAL SINGLE POINT ENERGY      -652.849222399316
FINAL SINGLE POINT ENERGY      -652.849295079846
FINAL SINGLE POINT ENERGY      -652.849322231243
FINAL SINGLE POINT ENERGY      -652.849327319658
FINAL SINGLE POINT ENERGY      -652.849325503868
                    ***********************HURRAY********************

CARTESIAN COORDINATES (ANGSTROEM)
---------------------------------
  C    -21.074212   26.150596   46.497811
  C    -20.197996   27.269521   45.920603
  C    -19.883497   28.120977   47.184662
  C    -19.777063   27.046644   48.294301
  O    -20.444913   25.834820   47.757048
  H    -21.005790   25.243447   45.892737
  H    -19.283901   26.809278   45.531006
  H    -20.676746   27.828054   45.115636
  H    -18.958544   28.696715   47.083445
  H    -20.690186   28.825625   47.386317
  H    -20.263539   27.338210   49.230203
  H    -18.741486   26.766124   48.505797
  C    -23.199424   26.840543   47.763098
  H    -23.925269   26.064707   48.025742
  H    -22.493760   26.930101   48.598444
  O    -22.518284   26.336037   46.572824
  C    -24.005010   28.138805   47.612585
  C    -23.334792   29.461286   47.216112
  C    -23.311047   29.354772   45.666959
  C    -24.632310   28.605244   45.355764
  O    -25.061134   27.963747   46.613608
  H    -24.510596   28.275383   48.577981
  O    -24.148478   30.583189   47.665027
  H    -22.361242   29.628759   47.670025
  H    -23.262187   30.346009   45.209308
  H    -22.454694   28.765236   45.341453
  H    -24.500340   27.831616   44.594917
  H    -25.435820   29.280934   45.043578
  H    -25.083739   30.410622   47.425006

 Multiplicity           Mult            ....    1
 Number of Electrons    NEL             ....  102
 Basis Dimension        Dim             ....  149

ORBITAL ENERGIES
----------------

  NO   OCC          E(Eh)            E(eV)
   0   2.0000     -19.153593      -521.1958
   1   2.0000     -19.143193      -520.9128
   2   2.0000     -19.139478      -520.8117
   3   2.0000     -19.138860      -520.7949
   4   2.0000     -10.284145      -279.8458
   5   2.0000     -10.243283      -278.7339
   6   2.0000     -10.237713      -278.5823
   7   2.0000     -10.235497      -278.5220
   8   2.0000     -10.231443      -278.4117
   9   2.0000     -10.226054      -278.2651
  10   2.0000     -10.199289      -277.5368
  11   2.0000     -10.195738      -277.4401
  12   2.0000     -10.185314      -277.1565
  13   2.0000      -1.056795       -28.7569
  14   2.0000      -1.037076       -28.2203
  15   2.0000      -1.006554       -27.3897
  16   2.0000      -0.994029       -27.0489
  17   2.0000      -0.796551       -21.6752
  18   2.0000      -0.780458       -21.2374
  19   2.0000      -0.771050       -20.9813
  20   2.0000      -0.740044       -20.1376
  21   2.0000      -0.679551       -18.4915
  22   2.0000      -0.614058       -16.7094
  23   2.0000      -0.606802       -16.5119
  24   2.0000      -0.602178       -16.3861
  25   2.0000      -0.569670       -15.5015
  26   2.0000      -0.521685       -14.1958
  27   2.0000      -0.518605       -14.1120
  28   2.0000      -0.504403       -13.7255
  29   2.0000      -0.496776       -13.5180
  30   2.0000      -0.471291       -12.8245
  31   2.0000      -0.459936       -12.5155
  32   2.0000      -0.456940       -12.4340
  33   2.0000      -0.436292       -11.8721
  34   2.0000      -0.425700       -11.5839
  35   2.0000      -0.422003       -11.4833
  36   2.0000      -0.409210       -11.1352
  37   2.0000      -0.391274       -10.6471
  38   2.0000      -0.380278       -10.3479
  39   2.0000      -0.375341       -10.2135
  40   2.0000      -0.368724       -10.0335
  41   2.0000      -0.363682        -9.8963
  42   2.0000      -0.347939        -9.4679
  43   2.0000      -0.334258        -9.0956
  44   2.0000      -0.325376        -8.8539
  45   2.0000      -0.310493        -8.4490
  46   2.0000      -0.306424        -8.3382
  47   2.0000      -0.271330        -7.3833
  48   2.0000      -0.268269        -7.3000
  49   2.0000      -0.260843        -7.0979
  50   2.0000      -0.236408        -6.4330
  51   0.0000       0.059013         1.6058
  52   0.0000       0.072703         1.9783
  53   0.0000       0.084209         2.2914
  54   0.0000       0.092317         2.5121
  55   0.0000       0.103432         2.8145

MULLIKEN ATOMIC CHARGES
-----------------------
   0 C :    0.311359
   1 C :   -0.275058
   2 C :   -0.323715
   3 C :   -0.016137
   4 O :   -0.508223
   5 H :    0.165035
   6 H :    0.154597
   7 H :    0.154122
   8 H :    0.150617
   9 H :    0.156872
  10 H :    0.143448
  11 H :    0.153214
  12 C :   -0.004948
  13 H :    0.168190
  14 H :    0.135975
  15 O :   -0.535198
  16 C :    0.068442
  17 C :    0.064702
  18 C :   -0.298891
  19 C :   -0.018348
  20 O :   -0.522878
  21 H :    0.153735
  22 O :   -0.607278
  23 H :    0.154128
  24 H :    0.153101
  25 H :    0.162684
  26 H :    0.157615
  27 H :    0.137317
  28 H :    0.365522
Sum of atomic charges:   -0.0000000

LOEWDIN ATOMIC CHARGES
----------------------
   0 C :    0.182956
   1 C :   -0.227578
   2 C :   -0.224820
   3 C :   -0.033403
   4 O :   -0.315598
   5 H :    0.109798
   6 H :    0.121183
   7 H :    0.118176
   8 H :    0.119391
   9 H :    0.109882
  10 H :    0.100733
  11 H :    0.107526
  12 C :   -0.037308
  13 H :    0.120619
  14 H :    0.103486
  15 O :   -0.336180
  16 C :    0.006900
  17 C :    0.034045
  18 C :   -0.240300
  19 C :   -0.033145
  20 O :   -0.328336
  21 H :    0.115789
  22 O :   -0.416442
  23 H :    0.110992
  24 H :    0.121429
  25 H :    0.119239
  26 H :    0.110998
  27 H :    0.096684
  28 H :    0.283282

  Mayer bond orders larger than 0.100000
B(  0-C ,  1-C ) :   0.9107 B(  0-C ,  4-O ) :   0.9027 B(  0-C ,  5-H ) :   0.9348
B(  0-C , 15-O ) :   0.8786 B(  1-C ,  2-C ) :   0.9576 B(  1-C ,  6-H ) :   0.9318
B(  1-C ,  7-H ) :   0.9266 B(  2-C ,  3-C ) :   0.9492 B(  2-C ,  8-H ) :   0.9448
B(  2-C ,  9-H ) :   0.9211 B(  3-C ,  4-O ) :   0.8361 B(  3-C , 10-H ) :   0.9314
B(  3-C , 11-H ) :   0.9394 B( 12-C , 13-H ) :   0.9266 B( 12-C , 14-H ) :   0.9075
B( 12-C , 15-O ) :   0.8506 B( 12-C , 16-C ) :   0.8960 B( 16-C , 17-C ) :   0.9092
B( 16-C , 20-O ) :   0.8613 B( 16-C , 21-H ) :   0.9157 B( 17-C , 18-C ) :   0.9236
B( 17-C , 22-O ) :   0.8771 B( 17-C , 23-H ) :   0.9160 B( 18-C , 19-C ) :   0.9432
B( 18-C , 24-H ) :   0.9377 B( 18-C , 25-H ) :   0.9120 B( 19-C , 20-O ) :   0.8438
B( 19-C , 26-H ) :   0.9328 B( 19-C , 27-H ) :   0.9368 B( 22-O , 28-H ) :   0.7932

FINAL SINGLE POINT ENERGY      -652.849325248998

DIPOLE MOMENT
-------------
                                X             Y             Z
Electronic contribution:     -4.27540      -2.91794       1.37147
Nuclear contribution   :      5.23156       3.48878      -1.71325
                        -----------------------------------------
Total Dipole Moment    :      0.95615       0.57083      -0.34178
                        -----------------------------------------
Magnitude (a.u.)       :      1.16486
Magnitude (Debye)      :      2.96084

Rotational constants in cm-1:     0.045966     0.017197     0.016038
Rotational constants in MHz :  1378.036158   515.545291   480.806807

                             ****ORCA TERMINATED NORMALLY****
TOTAL RUN TIME: 0 days 0 hours 38 minutes 19 seconds 715 msec
