                         Program Version 4.2.0 -  RELEASE  -
|  1> # Test redundant internal optimization
|  2> #
|  3> ! RKS B3LYP  Opt TightSCF SmallPrint
|  4>
|  5> %basis
|  6>         Basis "6-31G"
|  7> end
|  8>
|  9> %geom
| 10> Constraints
| 11> { D 4  0  15  12  315.0   C } # D for Dihedral angle
| 12> { D 0  15  12  16  285.0   C } # D for Dihedral angle
| 13> { D 0  4  3  2   C } # D for Dihedral angle
| 14> { D 4  3  2  1   C } # D for Dihedral angle
| 15> { D 3  2  1  0   C } # D for Dihedral angle
| 16> { D 2  1  0  4   C } # D for Dihedral angle
| 17> { D 1  0  4  3   C } # D for Dihedral angle
| 18> { D 16  20  19  18   C } # D for Dihedral angle
| 19> { D 20  19  18  17   C } # D for Dihedral angle
| 20> { D 19  18  17  16   C } # D for Dihedral angle
| 21> { D 18  17  16  20   C } # D for Dihedral angle
| 22> { D 17  16  20  19   C } # D for Dihedral angle
| 23> { D 15  12  16  20   C } # D for Dihedral angle
| 24> end
| 25> end
| 26>
| 27>
| 28> #%pal
| 29> #nprocs 8
| 30> #end
| 31>
| 32> * xyz 0 1
| 33> C  -21.048   26.222   46.251
| 34> C  -20.361   27.558   45.944
| 35> C  -20.329   28.222   47.341
| 36> C  -20.110   27.022   48.296
| 37> O  -20.473   25.807   47.535
| 38> H  -20.833   25.428   45.533
| 39> H  -19.344   27.382   45.576
| 40> H  -20.898   28.157   45.201
| 41> H  -19.543   28.978   47.434
| 42> H  -21.289   28.710   47.548
| 43> H  -20.733   27.082   49.195
| 44> H  -19.064   26.913   48.597
| 45> C  -23.319   25.255   47.135
| 46> H  -22.764   25.015   48.051
| 47> H  -24.330   25.572   47.420
| 48> O  -22.586   26.394   46.375
| 49> C  -23.451   23.957   46.290
| 50> C  -22.077   23.347   45.989
| 51> C  -21.753   22.630   47.321
| 52> C  -23.141   22.133   47.799
| 53> O  -24.148   22.917   47.054
| 54> H  -24.057   24.166   45.407
| 55> O  -22.194   22.322   44.828
| 56> H  -21.325   24.094   45.714
| 57> H  -21.036   21.813   47.200
| 58> H  -21.330   23.344   48.038
| 59> H  -23.293   22.282   48.873
| 60> H  -23.311   21.079   47.560
| 61> H  -22.942   21.562   45.081
| 62> *
| 63>
| 64>                          ****END OF INPUT****
 Total Charge           Charge          ....    0
 Multiplicity           Mult            ....    1
 Number of Electrons    NEL             ....  102
FINAL SINGLE POINT ENERGY      -652.829650521033
FINAL SINGLE POINT ENERGY      -652.853943446434
FINAL SINGLE POINT ENERGY      -652.863154508582
FINAL SINGLE POINT ENERGY      -652.864973974025
FINAL SINGLE POINT ENERGY      -652.865328170056
FINAL SINGLE POINT ENERGY      -652.865371404194
FINAL SINGLE POINT ENERGY      -652.865375303782
                    ***********************HURRAY********************

CARTESIAN COORDINATES (ANGSTROEM)
---------------------------------
  C    -20.960814   26.248952   46.243034
  C    -20.433423   27.664917   46.005915
  C    -20.469171   28.257172   47.433307
  C    -20.111070   27.049367   48.327153
  O    -20.344083   25.840475   47.488839
  H    -20.659609   25.514866   45.494481
  H    -19.408153   27.608841   45.623193
  H    -21.052146   28.216340   45.295314
  H    -19.768288   29.087419   47.561728
  H    -21.477784   28.616370   47.655107
  H    -20.729518   26.979411   49.225660
  H    -19.055462   27.027598   48.612487
  C    -23.142882   25.279348   47.005903
  H    -22.680365   25.076437   47.978494
  H    -24.132386   25.706794   47.175261
  O    -22.398106   26.345841   46.339289
  C    -23.325807   23.950860   46.247873
  C    -22.075956   23.120048   45.910670
  C    -21.748363   22.469485   47.283710
  C    -23.150804   22.224276   47.894089
  O    -24.098100   23.086481   47.150304
  H    -23.929944   24.106593   45.348943
  O    -22.402868   22.121470   44.900862
  H    -21.245502   23.679475   45.492365
  H    -21.176159   21.548514   47.148242
  H    -21.157515   23.167281   47.885741
  H    -23.201925   22.477098   48.957894
  H    -23.488685   21.190812   47.765527
  H    -23.257111   21.700459   45.134614

 Multiplicity           Mult            ....    1
 Number of Electrons    NEL             ....  102
 Basis Dimension        Dim             ....  149

ORBITAL ENERGIES
----------------

  NO   OCC          E(Eh)            E(eV)
   0   2.0000     -19.150667      -521.1162
   1   2.0000     -19.145201      -520.9674
   2   2.0000     -19.143480      -520.9206
   3   2.0000     -19.134416      -520.6739
   4   2.0000     -10.281928      -279.7855
   5   2.0000     -10.237436      -278.5748
   6   2.0000     -10.232162      -278.4313
   7   2.0000     -10.231567      -278.4151
   8   2.0000     -10.229123      -278.3486
   9   2.0000     -10.225472      -278.2492
  10   2.0000     -10.188764      -277.2504
  11   2.0000     -10.187547      -277.2172
  12   2.0000     -10.182016      -277.0667
  13   2.0000      -1.058159       -28.7940
  14   2.0000      -1.035502       -28.1774
  15   2.0000      -1.003345       -27.3024
  16   2.0000      -0.995227       -27.0815
  17   2.0000      -0.792556       -21.5665
  18   2.0000      -0.773739       -21.0545
  19   2.0000      -0.764598       -20.8058
  20   2.0000      -0.736494       -20.0410
  21   2.0000      -0.673792       -18.3348
  22   2.0000      -0.604456       -16.4481
  23   2.0000      -0.600178       -16.3317
  24   2.0000      -0.596568       -16.2335
  25   2.0000      -0.577322       -15.7097
  26   2.0000      -0.522695       -14.2233
  27   2.0000      -0.517178       -14.0731
  28   2.0000      -0.502044       -13.6613
  29   2.0000      -0.481958       -13.1147
  30   2.0000      -0.469935       -12.7876
  31   2.0000      -0.459082       -12.4923
  32   2.0000      -0.453237       -12.3332
  33   2.0000      -0.430388       -11.7115
  34   2.0000      -0.418909       -11.3991
  35   2.0000      -0.416295       -11.3280
  36   2.0000      -0.405575       -11.0362
  37   2.0000      -0.389589       -10.6013
  38   2.0000      -0.376371       -10.2416
  39   2.0000      -0.365262        -9.9393
  40   2.0000      -0.361914        -9.8482
  41   2.0000      -0.356825        -9.7097
  42   2.0000      -0.350954        -9.5499
  43   2.0000      -0.334640        -9.1060
  44   2.0000      -0.325927        -8.8689
  45   2.0000      -0.306042        -8.3278
  46   2.0000      -0.300503        -8.1771
  47   2.0000      -0.276560        -7.5256
  48   2.0000      -0.267352        -7.2750
  49   2.0000      -0.262459        -7.1419
  50   2.0000      -0.239285        -6.5113
  51   0.0000       0.068516         1.8644
  52   0.0000       0.075903         2.0654
  53   0.0000       0.094228         2.5641
  54   0.0000       0.098411         2.6779
  55   0.0000       0.108997         2.9660

MULLIKEN ATOMIC CHARGES
-----------------------
   0 C :    0.287849
   1 C :   -0.260553
   2 C :   -0.297132
   3 C :   -0.009692
   4 O :   -0.521602
   5 H :    0.151796
   6 H :    0.145222
   7 H :    0.163083
   8 H :    0.143014
   9 H :    0.163474
  10 H :    0.147558
  11 H :    0.147455
  12 C :   -0.013065
  13 H :    0.145387
  14 H :    0.165489
  15 O :   -0.527415
  16 C :    0.044657
  17 C :    0.081741
  18 C :   -0.309507
  19 C :   -0.030870
  20 O :   -0.525371
  21 H :    0.161741
  22 O :   -0.604603
  23 H :    0.160386
  24 H :    0.159437
  25 H :    0.176457
  26 H :    0.148108
  27 H :    0.143479
  28 H :    0.363474
Sum of atomic charges:   -0.0000000

LOEWDIN ATOMIC CHARGES
----------------------
   0 C :    0.171510
   1 C :   -0.213553
   2 C :   -0.215482
   3 C :   -0.028406
   4 O :   -0.332856
   5 H :    0.095298
   6 H :    0.113773
   7 H :    0.127649
   8 H :    0.114907
   9 H :    0.119976
  10 H :    0.104921
  11 H :    0.105177
  12 C :   -0.045560
  13 H :    0.103039
  14 H :    0.122516
  15 O :   -0.329206
  16 C :    0.007409
  17 C :    0.035997
  18 C :   -0.245153
  19 C :   -0.038993
  20 O :   -0.329446
  21 H :    0.115112
  22 O :   -0.417280
  23 H :    0.117749
  24 H :    0.125286
  25 H :    0.128526
  26 H :    0.104284
  27 H :    0.100927
  28 H :    0.281878

  Mayer bond orders larger than 0.100000
B(  0-C ,  1-C ) :   0.9457 B(  0-C ,  4-O ) :   0.8928 B(  0-C ,  5-H ) :   0.9045
B(  0-C , 15-O ) :   0.8611 B(  1-C ,  2-C ) :   0.9546 B(  1-C ,  6-H ) :   0.9395
B(  1-C ,  7-H ) :   0.9349 B(  2-C ,  3-C ) :   0.9559 B(  2-C ,  8-H ) :   0.9448
B(  2-C ,  9-H ) :   0.9437 B(  3-C ,  4-O ) :   0.8278 B(  3-C , 10-H ) :   0.9356
B(  3-C , 11-H ) :   0.9405 B( 12-C , 13-H ) :   0.9200 B( 12-C , 14-H ) :   0.9355
B( 12-C , 15-O ) :   0.8417 B( 12-C , 16-C ) :   0.8797 B( 16-C , 17-C ) :   0.9134
B( 16-C , 20-O ) :   0.8293 B( 16-C , 21-H ) :   0.9258 B( 17-C , 18-C ) :   0.9162
B( 17-C , 22-O ) :   0.8851 B( 17-C , 23-H ) :   0.9200 B( 18-C , 19-C ) :   0.9398
B( 18-C , 24-H ) :   0.9377 B( 18-C , 25-H ) :   0.9209 B( 19-C , 20-O ) :   0.8368
B( 19-C , 26-H ) :   0.9355 B( 19-C , 27-H ) :   0.9388 B( 22-O , 28-H ) :   0.7948

FINAL SINGLE POINT ENERGY      -652.865375865999

DIPOLE MOMENT
-------------
                                X             Y             Z
Electronic contribution:     -3.29529      -2.95237      -2.87641
Nuclear contribution   :      3.87554       3.54474       3.61309
                        -----------------------------------------
Total Dipole Moment    :      0.58025       0.59237       0.73668
                        -----------------------------------------
Magnitude (a.u.)       :      1.10919
Magnitude (Debye)      :      2.81933

Rotational constants in cm-1:     0.053956     0.014302     0.014060
Rotational constants in MHz :  1617.572153   428.753875   421.494590

                             ****ORCA TERMINATED NORMALLY****
TOTAL RUN TIME: 0 days 0 hours 32 minutes 39 seconds 460 msec
