                         Program Version 4.2.0 -  RELEASE  -
|  1> # Test redundant internal optimization
|  2> #
|  3> ! RKS B3LYP  Opt TightSCF SmallPrint
|  4>
|  5> %basis
|  6>         Basis "6-31G"
|  7> end
|  8>
|  9> %geom
| 10> Constraints
| 11> { D 4  0  15  12  105.0   C } # D for Dihedral angle
| 12> { D 0  15  12  16  240.0   C } # D for Dihedral angle
| 13> { D 0  4  3  2   C } # D for Dihedral angle
| 14> { D 4  3  2  1   C } # D for Dihedral angle
| 15> { D 3  2  1  0   C } # D for Dihedral angle
| 16> { D 2  1  0  4   C } # D for Dihedral angle
| 17> { D 1  0  4  3   C } # D for Dihedral angle
| 18> { D 16  20  19  18   C } # D for Dihedral angle
| 19> { D 20  19  18  17   C } # D for Dihedral angle
| 20> { D 19  18  17  16   C } # D for Dihedral angle
| 21> { D 18  17  16  20   C } # D for Dihedral angle
| 22> { D 17  16  20  19   C } # D for Dihedral angle
| 23> { D 15  12  16  20   C } # D for Dihedral angle
| 24> end
| 25> end
| 26>
| 27>
| 28> #%pal
| 29> #nprocs 8
| 30> #end
| 31>
| 32> * xyz 0 1
| 33> C  -21.048   26.222   46.251
| 34> C  -20.361   27.558   45.944
| 35> C  -20.329   28.222   47.341
| 36> C  -20.110   27.022   48.296
| 37> O  -20.473   25.807   47.535
| 38> H  -20.833   25.428   45.533
| 39> H  -19.344   27.382   45.576
| 40> H  -20.898   28.157   45.201
| 41> H  -19.543   28.978   47.434
| 42> H  -21.289   28.710   47.548
| 43> H  -20.733   27.082   49.195
| 44> H  -19.064   26.913   48.597
| 45> C  -23.085   27.864   46.420
| 46> H  -22.224   28.541   46.345
| 47> H  -23.756   28.068   45.576
| 48> O  -22.586   26.394   46.375
| 49> C  -23.854   28.198   47.728
| 50> C  -25.023   27.230   47.948
| 51> C  -24.297   25.985   48.511
| 52> C  -23.151   26.596   49.354
| 53> O  -22.992   27.994   48.897
| 54> H  -24.136   29.252   47.719
| 55> O  -26.006   27.813   49.000
| 56> H  -25.584   27.017   47.032
| 57> H  -24.955   25.342   49.105
| 58> H  -23.892   25.382   47.689
| 59> H  -22.202   26.065   49.222
| 60> H  -23.390   26.632   50.421
| 61> H  -25.465   28.034   49.927
| 62> *
| 63>
| 64>                          ****END OF INPUT****
 Total Charge           Charge          ....    0
 Multiplicity           Mult            ....    1
 Number of Electrons    NEL             ....  102
FINAL SINGLE POINT ENERGY      -652.812338333537
FINAL SINGLE POINT ENERGY      -652.841940571417
FINAL SINGLE POINT ENERGY      -652.856702067425
FINAL SINGLE POINT ENERGY      -652.859452922436
FINAL SINGLE POINT ENERGY      -652.859902718488
FINAL SINGLE POINT ENERGY      -652.859983636607
FINAL SINGLE POINT ENERGY      -652.859987931521
FINAL SINGLE POINT ENERGY      -652.859988982086
                    ***********************HURRAY********************

CARTESIAN COORDINATES (ANGSTROEM)
---------------------------------
  C    -21.114335   26.396253   46.298623
  C    -20.220206   27.576942   45.893839
  C    -19.959337   28.271240   47.262988
  C    -19.891623   27.073463   48.239885
  O    -20.533256   25.931439   47.536072
  H    -21.043327   25.544892   45.619027
  H    -19.288834   27.173258   45.484836
  H    -20.667300   28.233743   45.142425
  H    -19.031274   28.851291   47.260186
  H    -20.777428   28.938891   47.542611
  H    -20.427781   27.265945   49.170785
  H    -18.865840   26.764928   48.460452
  C    -23.166795   27.927100   46.466673
  H    -22.427173   28.729274   46.411382
  H    -23.835235   28.023287   45.600548
  O    -22.544817   26.613816   46.389134
  C    -23.978159   28.095629   47.752133
  C    -25.144476   27.120744   47.977602
  C    -24.416251   25.901121   48.598652
  C    -23.296115   26.545195   49.447281
  O    -23.140057   27.941888   48.943580
  H    -24.358845   29.124978   47.765433
  O    -26.132624   27.702791   48.874646
  H    -25.693964   26.879481   47.067235
  H    -25.107789   25.296107   49.192264
  H    -23.983136   25.293678   47.801916
  H    -22.346344   26.022199   49.327602
  H    -23.550056   26.622287   50.509844
  H    -25.680624   28.026138   49.682346

 Multiplicity           Mult            ....    1
 Number of Electrons    NEL             ....  102
 Basis Dimension        Dim             ....  149

ORBITAL ENERGIES
----------------

  NO   OCC          E(Eh)            E(eV)
   0   2.0000     -19.146559      -521.0044
   1   2.0000     -19.142491      -520.8937
   2   2.0000     -19.140228      -520.8321
   3   2.0000     -19.133169      -520.6400
   4   2.0000     -10.282902      -279.8120
   5   2.0000     -10.236553      -278.5508
   6   2.0000     -10.233918      -278.4791
   7   2.0000     -10.232292      -278.4348
   8   2.0000     -10.224451      -278.2214
   9   2.0000     -10.217490      -278.0320
  10   2.0000     -10.195994      -277.4471
  11   2.0000     -10.190513      -277.2980
  12   2.0000     -10.171430      -276.7787
  13   2.0000      -1.052412       -28.6376
  14   2.0000      -1.029428       -28.0122
  15   2.0000      -1.002298       -27.2739
  16   2.0000      -0.994349       -27.0576
  17   2.0000      -0.789740       -21.4899
  18   2.0000      -0.778457       -21.1829
  19   2.0000      -0.762462       -20.7476
  20   2.0000      -0.733517       -19.9600
  21   2.0000      -0.678231       -18.4556
  22   2.0000      -0.606599       -16.5064
  23   2.0000      -0.599881       -16.3236
  24   2.0000      -0.593109       -16.1393
  25   2.0000      -0.567339       -15.4381
  26   2.0000      -0.526145       -14.3171
  27   2.0000      -0.507604       -13.8126
  28   2.0000      -0.496378       -13.5071
  29   2.0000      -0.491981       -13.3875
  30   2.0000      -0.468577       -12.7506
  31   2.0000      -0.458672       -12.4811
  32   2.0000      -0.444609       -12.0984
  33   2.0000      -0.436802       -11.8860
  34   2.0000      -0.425839       -11.5877
  35   2.0000      -0.410113       -11.1597
  36   2.0000      -0.401700       -10.9308
  37   2.0000      -0.387225       -10.5369
  38   2.0000      -0.382126       -10.3982
  39   2.0000      -0.362364        -9.8604
  40   2.0000      -0.360697        -9.8151
  41   2.0000      -0.355314        -9.6686
  42   2.0000      -0.350790        -9.5455
  43   2.0000      -0.326047        -8.8722
  44   2.0000      -0.316774        -8.6199
  45   2.0000      -0.304869        -8.2959
  46   2.0000      -0.293381        -7.9833
  47   2.0000      -0.279220        -7.5980
  48   2.0000      -0.263567        -7.1720
  49   2.0000      -0.254972        -6.9381
  50   2.0000      -0.239738        -6.5236
  51   0.0000       0.068589         1.8664
  52   0.0000       0.080989         2.2038
  53   0.0000       0.094945         2.5836
  54   0.0000       0.102272         2.7830
  55   0.0000       0.106921         2.9095

MULLIKEN ATOMIC CHARGES
-----------------------
   0 C :    0.321817
   1 C :   -0.304945
   2 C :   -0.315544
   3 C :   -0.009592
   4 O :   -0.503920
   5 H :    0.162176
   6 H :    0.158915
   7 H :    0.148842
   8 H :    0.143625
   9 H :    0.172872
  10 H :    0.161031
  11 H :    0.142346
  12 C :   -0.015470
  13 H :    0.139314
  14 H :    0.141964
  15 O :   -0.532223
  16 C :    0.081955
  17 C :    0.077990
  18 C :   -0.290002
  19 C :   -0.042771
  20 O :   -0.538588
  21 H :    0.149698
  22 O :   -0.604242
  23 H :    0.151753
  24 H :    0.145933
  25 H :    0.184422
  26 H :    0.178290
  27 H :    0.132715
  28 H :    0.361639
Sum of atomic charges:   -0.0000000

LOEWDIN ATOMIC CHARGES
----------------------
   0 C :    0.179978
   1 C :   -0.231873
   2 C :   -0.223161
   3 C :   -0.031416
   4 O :   -0.320350
   5 H :    0.108593
   6 H :    0.124463
   7 H :    0.116124
   8 H :    0.115177
   9 H :    0.118391
  10 H :    0.111379
  11 H :    0.102031
  12 C :   -0.039270
  13 H :    0.104584
  14 H :    0.104687
  15 O :   -0.326555
  16 C :    0.009665
  17 C :    0.039223
  18 C :   -0.240399
  19 C :   -0.040955
  20 O :   -0.339976
  21 H :    0.112983
  22 O :   -0.417781
  23 H :    0.116215
  24 H :    0.117667
  25 H :    0.135115
  26 H :    0.119411
  27 H :    0.094652
  28 H :    0.281395

  Mayer bond orders larger than 0.100000
B(  0-C ,  1-C ) :   0.9304 B(  0-C ,  4-O ) :   0.9064 B(  0-C ,  5-H ) :   0.9354
B(  0-C , 15-O ) :   0.8729 B(  1-C ,  2-C ) :   0.9520 B(  1-C ,  6-H ) :   0.9339
B(  1-C ,  7-H ) :   0.9317 B(  2-C ,  3-C ) :   0.9513 B(  2-C ,  8-H ) :   0.9451
B(  2-C ,  9-H ) :   0.9297 B(  3-C ,  4-O ) :   0.8344 B(  3-C , 10-H ) :   0.9251
B(  3-C , 11-H ) :   0.9399 B( 12-C , 13-H ) :   0.9090 B( 12-C , 14-H ) :   0.9232
B( 12-C , 15-O ) :   0.8549 B( 12-C , 16-C ) :   0.8895 B( 16-C , 17-C ) :   0.9102
B( 16-C , 20-O ) :   0.8716 B( 16-C , 21-H ) :   0.9192 B( 17-C , 18-C ) :   0.9255
B( 17-C , 22-O ) :   0.8902 B( 17-C , 23-H ) :   0.9359 B( 18-C , 19-C ) :   0.9474
B( 18-C , 24-H ) :   0.9373 B( 18-C , 25-H ) :   0.9165 B( 19-C , 20-O ) :   0.8264
B( 19-C , 26-H ) :   0.9145 B( 19-C , 27-H ) :   0.9371 B( 22-O , 28-H ) :   0.7970

FINAL SINGLE POINT ENERGY      -652.859987124280

DIPOLE MOMENT
-------------
                                X             Y             Z
Electronic contribution:     -3.27895      -1.42128       0.42438
Nuclear contribution   :      4.21364       2.03259      -0.88007
                        -----------------------------------------
Total Dipole Moment    :      0.93469       0.61131      -0.45568
                        -----------------------------------------
Magnitude (a.u.)       :      1.20623
Magnitude (Debye)      :      3.06599

Rotational constants in cm-1:     0.054204     0.017226     0.016338
Rotational constants in MHz :  1624.987004   516.412007   489.805005

                             ****ORCA TERMINATED NORMALLY****
TOTAL RUN TIME: 0 days 1 hours 8 minutes 54 seconds 599 msec
