                         Program Version 4.2.0 -  RELEASE  -
|  1> # Test redundant internal optimization
|  2> #
|  3> ! RKS B3LYP  Opt TightSCF SmallPrint
|  4>
|  5> %basis
|  6>         Basis "6-31G"
|  7> end
|  8>
|  9> %geom
| 10> Constraints
| 11> { D 4  0  15  12  225.0   C } # D for Dihedral angle
| 12> { D 0  15  12  16  195.0   C } # D for Dihedral angle
| 13> { D 0  4  3  2   C } # D for Dihedral angle
| 14> { D 4  3  2  1   C } # D for Dihedral angle
| 15> { D 3  2  1  0   C } # D for Dihedral angle
| 16> { D 2  1  0  4   C } # D for Dihedral angle
| 17> { D 1  0  4  3   C } # D for Dihedral angle
| 18> { D 16  20  19  18   C } # D for Dihedral angle
| 19> { D 20  19  18  17   C } # D for Dihedral angle
| 20> { D 19  18  17  16   C } # D for Dihedral angle
| 21> { D 18  17  16  20   C } # D for Dihedral angle
| 22> { D 17  16  20  19   C } # D for Dihedral angle
| 23> { D 15  12  16  20   C } # D for Dihedral angle
| 24> end
| 25> end
| 26>
| 27>
| 28> #%pal
| 29> #nprocs 8
| 30> #end
| 31>
| 32> * xyz 0 1
| 33> C  -21.048   26.222   46.251
| 34> C  -20.361   27.558   45.944
| 35> C  -20.329   28.222   47.341
| 36> C  -20.110   27.022   48.296
| 37> O  -20.473   25.807   47.535
| 38> H  -20.833   25.428   45.533
| 39> H  -19.344   27.382   45.576
| 40> H  -20.898   28.157   45.201
| 41> H  -19.543   28.978   47.434
| 42> H  -21.289   28.710   47.548
| 43> H  -20.733   27.082   49.195
| 44> H  -19.064   26.913   48.597
| 45> C  -23.415   25.773   45.218
| 46> H  -22.945   26.025   44.259
| 47> H  -23.443   24.679   45.309
| 48> O  -22.586   26.394   46.375
| 49> C  -24.883   26.282   45.190
| 50> C  -25.580   26.044   46.535
| 51> C  -25.028   27.213   47.385
| 52> C  -24.899   28.365   46.358
| 53> O  -24.918   27.738   45.018
| 54> H  -25.397   25.846   44.332
| 55> H  -26.666   26.132   46.416
| 56> O  -25.265   24.653   47.149
| 57> H  -25.682   27.474   48.224
| 58> H  -24.046   26.950   47.796
| 59> H  -23.969   28.931   46.476
| 60> H  -25.743   29.059   46.400
| 61> H  -24.183   24.543   47.276
| 62> *
| 63>
| 64>                          ****END OF INPUT****
 Total Charge           Charge          ....    0
 Multiplicity           Mult            ....    1
 Number of Electrons    NEL             ....  102
FINAL SINGLE POINT ENERGY      -652.834816213211
FINAL SINGLE POINT ENERGY      -652.857879585625
FINAL SINGLE POINT ENERGY      -652.862169150710
FINAL SINGLE POINT ENERGY      -652.863396547177
FINAL SINGLE POINT ENERGY      -652.863530366078
FINAL SINGLE POINT ENERGY      -652.863548717991
FINAL SINGLE POINT ENERGY      -652.863549062864
                    ***********************HURRAY********************

CARTESIAN COORDINATES (ANGSTROEM)
---------------------------------
  C    -21.060899   26.192703   46.185510
  C    -20.392946   27.536234   45.899999
  C    -20.401927   28.199591   47.296693
  C    -20.184193   27.005542   48.250636
  O    -20.517864   25.792171   47.456336
  H    -20.835982   25.393837   45.472839
  H    -19.366579   27.366542   45.553739
  H    -20.930019   28.115421   45.144809
  H    -19.627865   28.965342   47.403680
  H    -21.374992   28.666930   47.476519
  H    -20.828055   27.033614   49.133175
  H    -19.142517   26.895352   48.565390
  C    -23.291945   25.774161   45.221210
  H    -22.844226   26.033523   44.252006
  H    -23.317521   24.679176   45.315400
  O    -22.502500   26.358332   46.299773
  C    -24.715816   26.314491   45.245070
  C    -25.498824   26.038427   46.541113
  C    -25.053850   27.229248   47.445326
  C    -24.901818   28.383625   46.432425
  O    -24.799794   27.759697   45.086736
  H    -25.229483   25.881506   44.378052
  H    -26.571911   26.069052   46.341121
  O    -25.257981   24.730960   47.113783
  H    -25.787323   27.447122   48.227167
  H    -24.093652   26.982421   47.903288
  H    -24.004725   28.984550   46.607698
  H    -25.777081   29.040971   46.408210
  H    -24.360713   24.711458   47.509296

 Multiplicity           Mult            ....    1
 Number of Electrons    NEL             ....  102
 Basis Dimension        Dim             ....  149

ORBITAL ENERGIES
----------------

  NO   OCC          E(Eh)            E(eV)
   0   2.0000     -19.149737      -521.0908
   1   2.0000     -19.145725      -520.9817
   2   2.0000     -19.136812      -520.7391
   3   2.0000     -19.134285      -520.6704
   4   2.0000     -10.285375      -279.8793
   5   2.0000     -10.235147      -278.5125
   6   2.0000     -10.234139      -278.4851
   7   2.0000     -10.231174      -278.4044
   8   2.0000     -10.230235      -278.3788
   9   2.0000     -10.222381      -278.1651
  10   2.0000     -10.190736      -277.3040
  11   2.0000     -10.189209      -277.2625
  12   2.0000     -10.177870      -276.9539
  13   2.0000      -1.058778       -28.8108
  14   2.0000      -1.026167       -27.9234
  15   2.0000      -1.008030       -27.4299
  16   2.0000      -0.998844       -27.1799
  17   2.0000      -0.791419       -21.5356
  18   2.0000      -0.772925       -21.0323
  19   2.0000      -0.765431       -20.8284
  20   2.0000      -0.734167       -19.9777
  21   2.0000      -0.678165       -18.4538
  22   2.0000      -0.604004       -16.4358
  23   2.0000      -0.601423       -16.3655
  24   2.0000      -0.595779       -16.2120
  25   2.0000      -0.574916       -15.6443
  26   2.0000      -0.528754       -14.3881
  27   2.0000      -0.506629       -13.7861
  28   2.0000      -0.498420       -13.5627
  29   2.0000      -0.487863       -13.2754
  30   2.0000      -0.475411       -12.9366
  31   2.0000      -0.460843       -12.5402
  32   2.0000      -0.442099       -12.0301
  33   2.0000      -0.434473       -11.8226
  34   2.0000      -0.422641       -11.5007
  35   2.0000      -0.413947       -11.2641
  36   2.0000      -0.402290       -10.9469
  37   2.0000      -0.398366       -10.8401
  38   2.0000      -0.377409       -10.2698
  39   2.0000      -0.373705       -10.1690
  40   2.0000      -0.361039        -9.8244
  41   2.0000      -0.355370        -9.6701
  42   2.0000      -0.350231        -9.5303
  43   2.0000      -0.325482        -8.8568
  44   2.0000      -0.319716        -8.6999
  45   2.0000      -0.312929        -8.5152
  46   2.0000      -0.304744        -8.2925
  47   2.0000      -0.271089        -7.3767
  48   2.0000      -0.262353        -7.1390
  49   2.0000      -0.254370        -6.9217
  50   2.0000      -0.239525        -6.5178
  51   0.0000       0.064137         1.7452
  52   0.0000       0.076974         2.0946
  53   0.0000       0.088375         2.4048
  54   0.0000       0.095707         2.6043
  55   0.0000       0.105980         2.8839

MULLIKEN ATOMIC CHARGES
-----------------------
   0 C :    0.289738
   1 C :   -0.255326
   2 C :   -0.306530
   3 C :   -0.003814
   4 O :   -0.505089
   5 H :    0.144145
   6 H :    0.144827
   7 H :    0.157445
   8 H :    0.145315
   9 H :    0.161630
  10 H :    0.149494
  11 H :    0.145014
  12 C :   -0.023065
  13 H :    0.141806
  14 H :    0.145941
  15 O :   -0.532260
  16 C :    0.090234
  17 C :    0.083698
  18 C :   -0.312654
  19 C :   -0.007887
  20 O :   -0.522426
  21 H :    0.149148
  22 H :    0.162932
  23 O :   -0.609618
  24 H :    0.143005
  25 H :    0.170454
  26 H :    0.142807
  27 H :    0.141441
  28 H :    0.369595
Sum of atomic charges:   -0.0000000

LOEWDIN ATOMIC CHARGES
----------------------
   0 C :    0.178092
   1 C :   -0.222831
   2 C :   -0.216943
   3 C :   -0.026772
   4 O :   -0.313538
   5 H :    0.100768
   6 H :    0.113946
   7 H :    0.123321
   8 H :    0.116075
   9 H :    0.116556
  10 H :    0.106505
  11 H :    0.104136
  12 C :   -0.047857
  13 H :    0.101848
  14 H :    0.103108
  15 O :   -0.344052
  16 C :    0.019461
  17 C :    0.037434
  18 C :   -0.243723
  19 C :   -0.025791
  20 O :   -0.324299
  21 H :    0.114630
  22 H :    0.116244
  23 O :   -0.412703
  24 H :    0.114676
  25 H :    0.123979
  26 H :    0.101269
  27 H :    0.100638
  28 H :    0.285822

  Mayer bond orders larger than 0.100000
B(  0-C ,  1-C ) :   0.9379 B(  0-C ,  4-O ) :   0.9345 B(  0-C ,  5-H ) :   0.9196
B(  0-C , 15-O ) :   0.8264 B(  1-C ,  2-C ) :   0.9547 B(  1-C ,  6-H ) :   0.9349
B(  1-C ,  7-H ) :   0.9355 B(  2-C ,  3-C ) :   0.9542 B(  2-C ,  8-H ) :   0.9446
B(  2-C ,  9-H ) :   0.9416 B(  3-C ,  4-O ) :   0.8359 B(  3-C , 10-H ) :   0.9349
B(  3-C , 11-H ) :   0.9394 B( 12-C , 13-H ) :   0.9213 B( 12-C , 14-H ) :   0.9025
B( 12-C , 15-O ) :   0.8305 B( 12-C , 16-C ) :   0.9138 B( 16-C , 17-C ) :   0.8872
B( 16-C , 20-O ) :   0.8813 B( 16-C , 21-H ) :   0.9282 B( 17-C , 18-C ) :   0.9338
B( 17-C , 22-H ) :   0.9356 B( 17-C , 23-O ) :   0.9046 B( 18-C , 19-C ) :   0.9467
B( 18-C , 24-H ) :   0.9411 B( 18-C , 25-H ) :   0.9247 B( 19-C , 20-O ) :   0.8373
B( 19-C , 26-H ) :   0.9303 B( 19-C , 27-H ) :   0.9375 B( 23-O , 28-H ) :   0.7887

FINAL SINGLE POINT ENERGY      -652.863537144477

DIPOLE MOMENT
-------------
                                X             Y             Z
Electronic contribution:     -2.44759      -4.03210      -1.42224
Nuclear contribution   :      3.27520       4.79511       1.48880
                        -----------------------------------------
Total Dipole Moment    :      0.82760       0.76301       0.06656
                        -----------------------------------------
Magnitude (a.u.)       :      1.12762
Magnitude (Debye)      :      2.86619

Rotational constants in cm-1:     0.044323     0.016432     0.015447
Rotational constants in MHz :  1328.783187   492.617396   463.103739

                             ****ORCA TERMINATED NORMALLY****
TOTAL RUN TIME: 0 days 0 hours 38 minutes 19 seconds 35 msec
