                         Program Version 4.2.0 -  RELEASE  -
|  1> # Test redundant internal optimization
|  2> #
|  3> ! RKS B3LYP  Opt TightSCF SmallPrint
|  4>
|  5> %basis
|  6>         Basis "6-31G"
|  7> end
|  8>
|  9> %geom
| 10> Constraints
| 11> { D 4  0  15  12  60.0   C } # D for Dihedral angle
| 12> { D 0  15  12  16  210.0   C } # D for Dihedral angle
| 13> { D 0  4  3  2   C } # D for Dihedral angle
| 14> { D 4  3  2  1   C } # D for Dihedral angle
| 15> { D 3  2  1  0   C } # D for Dihedral angle
| 16> { D 2  1  0  4   C } # D for Dihedral angle
| 17> { D 1  0  4  3   C } # D for Dihedral angle
| 18> { D 16  20  19  18   C } # D for Dihedral angle
| 19> { D 20  19  18  17   C } # D for Dihedral angle
| 20> { D 19  18  17  16   C } # D for Dihedral angle
| 21> { D 18  17  16  20   C } # D for Dihedral angle
| 22> { D 17  16  20  19   C } # D for Dihedral angle
| 23> { D 15  12  16  20   C } # D for Dihedral angle
| 24> end
| 25> end
| 26>
| 27>
| 28> #%pal
| 29> #nprocs 8
| 30> #end
| 31>
| 32> * xyz 0 1
| 33> C  -21.048   26.222   46.251
| 34> C  -20.361   27.558   45.944
| 35> C  -20.329   28.222   47.341
| 36> C  -20.110   27.022   48.296
| 37> O  -20.473   25.807   47.535
| 38> H  -20.833   25.428   45.533
| 39> H  -19.344   27.382   45.576
| 40> H  -20.898   28.157   45.201
| 41> H  -19.543   28.978   47.434
| 42> H  -21.289   28.710   47.548
| 43> H  -20.733   27.082   49.195
| 44> H  -19.064   26.913   48.597
| 45> C  -23.051   27.452   47.413
| 46> H  -22.310   27.516   48.220
| 47> H  -23.134   28.440   46.944
| 48> O  -22.586   26.394   46.375
| 49> C  -24.430   27.110   48.042
| 50> C  -25.501   26.915   46.963
| 51> C  -25.195   25.478   46.475
| 52> C  -24.735   24.758   47.767
| 53> O  -24.372   25.818   48.733
| 54> H  -24.677   27.863   48.793
| 55> O  -26.916   26.988   47.598
| 56> H  -25.444   27.657   46.160
| 57> H  -26.061   24.993   46.013
| 58> H  -24.387   25.496   45.734
| 59> H  -23.868   24.111   47.601
| 60> H  -25.535   24.167   48.223
| 61> H  -26.997   26.252   48.405
| 62> *
| 63>
| 64>                          ****END OF INPUT****
 Total Charge           Charge          ....    0
 Multiplicity           Mult            ....    1
 Number of Electrons    NEL             ....  102
FINAL SINGLE POINT ENERGY      -652.817197232617
FINAL SINGLE POINT ENERGY      -652.843963962284
FINAL SINGLE POINT ENERGY      -652.856776009102
FINAL SINGLE POINT ENERGY      -652.858962483742
FINAL SINGLE POINT ENERGY      -652.859287860124
FINAL SINGLE POINT ENERGY      -652.859339654637
FINAL SINGLE POINT ENERGY      -652.859344262169
                    ***********************HURRAY********************

CARTESIAN COORDINATES (ANGSTROEM)
---------------------------------
  C    -21.167891   26.354928   46.439975
  C    -20.349974   27.564891   45.968404
  C    -20.035910   28.288313   47.309846
  C    -19.859210   27.106147   48.296165
  O    -20.494397   25.931955   47.644513
  H    -21.115242   25.509710   45.752278
  H    -19.428998   27.204384   45.498505
  H    -20.890818   28.187904   45.251039
  H    -19.132953   28.903554   47.247787
  H    -20.861292   28.941850   47.605077
  H    -20.333913   27.272470   49.267594
  H    -18.807552   26.849188   48.453150
  C    -23.158653   27.497729   47.504212
  H    -22.518894   27.576028   48.388489
  H    -23.251059   28.487340   47.034037
  O    -22.595618   26.537605   46.566020
  C    -24.529534   27.022852   47.990145
  C    -25.608062   26.818633   46.917422
  C    -25.285807   25.385891   46.413099
  C    -24.804749   24.666005   47.697036
  O    -24.448884   25.731427   48.666146
  H    -24.878054   27.750757   48.733597
  O    -26.937756   26.916747   47.502674
  H    -25.589517   27.569508   46.126325
  H    -26.172585   24.923304   45.971142
  H    -24.483396   25.432205   45.675216
  H    -23.921293   24.047589   47.522679
  H    -25.586682   24.057224   48.163540
  H    -26.975308   26.352863   48.303890

 Multiplicity           Mult            ....    1
 Number of Electrons    NEL             ....  102
 Basis Dimension        Dim             ....  149

ORBITAL ENERGIES
----------------

  NO   OCC          E(Eh)            E(eV)
   0   2.0000     -19.149250      -521.0776
   1   2.0000     -19.146223      -520.9952
   2   2.0000     -19.133554      -520.6505
   3   2.0000     -19.131604      -520.5974
   4   2.0000     -10.282944      -279.8131
   5   2.0000     -10.234844      -278.5043
   6   2.0000     -10.233061      -278.4558
   7   2.0000     -10.233013      -278.4544
   8   2.0000     -10.231713      -278.4191
   9   2.0000     -10.217561      -278.0340
  10   2.0000     -10.196769      -277.4682
  11   2.0000     -10.193833      -277.3883
  12   2.0000     -10.171716      -276.7865
  13   2.0000      -1.056870       -28.7589
  14   2.0000      -1.029045       -28.0017
  15   2.0000      -1.003093       -27.2955
  16   2.0000      -0.994590       -27.0642
  17   2.0000      -0.792464       -21.5640
  18   2.0000      -0.779425       -21.2092
  19   2.0000      -0.761763       -20.7286
  20   2.0000      -0.734653       -19.9909
  21   2.0000      -0.676258       -18.4019
  22   2.0000      -0.607749       -16.5377
  23   2.0000      -0.604265       -16.4429
  24   2.0000      -0.592866       -16.1327
  25   2.0000      -0.568488       -15.4693
  26   2.0000      -0.523899       -14.2560
  27   2.0000      -0.510891       -13.9020
  28   2.0000      -0.498961       -13.5774
  29   2.0000      -0.482733       -13.1358
  30   2.0000      -0.477735       -12.9998
  31   2.0000      -0.458217       -12.4687
  32   2.0000      -0.448314       -12.1992
  33   2.0000      -0.435776       -11.8581
  34   2.0000      -0.423789       -11.5319
  35   2.0000      -0.414428       -11.2772
  36   2.0000      -0.401363       -10.9217
  37   2.0000      -0.385310       -10.4848
  38   2.0000      -0.382873       -10.4185
  39   2.0000      -0.365467        -9.9449
  40   2.0000      -0.364181        -9.9099
  41   2.0000      -0.358692        -9.7605
  42   2.0000      -0.348618        -9.4864
  43   2.0000      -0.324533        -8.8310
  44   2.0000      -0.320439        -8.7196
  45   2.0000      -0.309770        -8.4293
  46   2.0000      -0.296361        -8.0644
  47   2.0000      -0.271820        -7.3966
  48   2.0000      -0.262303        -7.1376
  49   2.0000      -0.256789        -6.9876
  50   2.0000      -0.238085        -6.4786
  51   0.0000       0.068008         1.8506
  52   0.0000       0.077504         2.1090
  53   0.0000       0.089184         2.4268
  54   0.0000       0.105848         2.8803
  55   0.0000       0.106803         2.9063

MULLIKEN ATOMIC CHARGES
-----------------------
   0 C :    0.302742
   1 C :   -0.272993
   2 C :   -0.316509
   3 C :   -0.015993
   4 O :   -0.500014
   5 H :    0.163258
   6 H :    0.155125
   7 H :    0.149803
   8 H :    0.148272
   9 H :    0.148712
  10 H :    0.151541
  11 H :    0.149597
  12 C :   -0.001974
  13 H :    0.154742
  14 H :    0.125826
  15 O :   -0.526995
  16 C :    0.066654
  17 C :    0.073783
  18 C :   -0.287642
  19 C :   -0.021140
  20 O :   -0.521547
  21 H :    0.153341
  22 O :   -0.603913
  23 H :    0.149379
  24 H :    0.144999
  25 H :    0.176397
  26 H :    0.158638
  27 H :    0.133689
  28 H :    0.362221
Sum of atomic charges:   -0.0000000

LOEWDIN ATOMIC CHARGES
----------------------
   0 C :    0.175853
   1 C :   -0.228395
   2 C :   -0.224878
   3 C :   -0.034530
   4 O :   -0.315747
   5 H :    0.112235
   6 H :    0.121166
   7 H :    0.119080
   8 H :    0.117290
   9 H :    0.110011
  10 H :    0.104604
  11 H :    0.106001
  12 C :   -0.041237
  13 H :    0.109893
  14 H :    0.093945
  15 O :   -0.322478
  16 C :    0.014170
  17 C :    0.037613
  18 C :   -0.242257
  19 C :   -0.032713
  20 O :   -0.326748
  21 H :    0.114408
  22 O :   -0.418279
  23 H :    0.114718
  24 H :    0.116866
  25 H :    0.131069
  26 H :    0.111812
  27 H :    0.094892
  28 H :    0.281637

  Mayer bond orders larger than 0.100000
B(  0-C ,  1-C ) :   0.9177 B(  0-C ,  4-O ) :   0.9115 B(  0-C ,  5-H ) :   0.9368
B(  0-C , 15-O ) :   0.8863 B(  1-C ,  2-C ) :   0.9550 B(  1-C ,  6-H ) :   0.9354
B(  1-C ,  7-H ) :   0.9374 B(  2-C ,  3-C ) :   0.9479 B(  2-C ,  8-H ) :   0.9449
B(  2-C ,  9-H ) :   0.9414 B(  3-C ,  4-O ) :   0.8406 B(  3-C , 10-H ) :   0.9304
B(  3-C , 11-H ) :   0.9385 B( 12-C , 13-H ) :   0.9096 B( 12-C , 14-H ) :   0.9111
B( 12-C , 15-O ) :   0.8428 B( 12-C , 16-C ) :   0.8961 B( 16-C , 17-C ) :   0.9100
B( 16-C , 20-O ) :   0.8835 B( 16-C , 21-H ) :   0.9218 B( 17-C , 18-C ) :   0.9252
B( 17-C , 22-O ) :   0.8909 B( 17-C , 23-H ) :   0.9356 B( 18-C , 19-C ) :   0.9463
B( 18-C , 24-H ) :   0.9375 B( 18-C , 25-H ) :   0.9186 B( 19-C , 20-O ) :   0.8371
B( 19-C , 26-H ) :   0.9329 B( 19-C , 27-H ) :   0.9372 B( 22-O , 28-H ) :   0.7962

FINAL SINGLE POINT ENERGY      -652.859343031704

DIPOLE MOMENT
-------------
                                X             Y             Z
Electronic contribution:     -3.46614      -2.59339       1.52345
Nuclear contribution   :      4.49486       3.34012      -1.92248
                        -----------------------------------------
Total Dipole Moment    :      1.02872       0.74673      -0.39902
                        -----------------------------------------
Magnitude (a.u.)       :      1.33232
Magnitude (Debye)      :      3.38650

Rotational constants in cm-1:     0.060341     0.013878     0.013522
Rotational constants in MHz :  1808.981291   416.048488   405.380254

                             ****ORCA TERMINATED NORMALLY****
TOTAL RUN TIME: 0 days 0 hours 19 minutes 27 seconds 353 msec
