                         Program Version 4.2.0 -  RELEASE  -
|  1> # Test redundant internal optimization
|  2> #
|  3> ! RKS B3LYP  Opt TightSCF SmallPrint
|  4>
|  5> %basis
|  6>         Basis "6-31G"
|  7> end
|  8>
|  9> %geom
| 10> Constraints
| 11> { D 4  0  15  12  285.0   C } # D for Dihedral angle
| 12> { D 0  15  12  16  150.0   C } # D for Dihedral angle
| 13> { D 0  4  3  2   C } # D for Dihedral angle
| 14> { D 4  3  2  1   C } # D for Dihedral angle
| 15> { D 3  2  1  0   C } # D for Dihedral angle
| 16> { D 2  1  0  4   C } # D for Dihedral angle
| 17> { D 1  0  4  3   C } # D for Dihedral angle
| 18> { D 16  20  19  18   C } # D for Dihedral angle
| 19> { D 20  19  18  17   C } # D for Dihedral angle
| 20> { D 19  18  17  16   C } # D for Dihedral angle
| 21> { D 18  17  16  20   C } # D for Dihedral angle
| 22> { D 17  16  20  19   C } # D for Dihedral angle
| 23> { D 15  12  16  20   C } # D for Dihedral angle
| 24> end
| 25> end
| 26>
| 27>
| 28> #%pal
| 29> #nprocs 8
| 30> #end
| 31>
| 32> * xyz 0 1
| 33> C  -21.048   26.222   46.251
| 34> C  -20.361   27.558   45.944
| 35> C  -20.329   28.222   47.341
| 36> C  -20.110   27.022   48.296
| 37> O  -20.473   25.807   47.535
| 38> H  -20.833   25.428   45.533
| 39> H  -19.344   27.382   45.576
| 40> H  -20.898   28.157   45.201
| 41> H  -19.543   28.978   47.434
| 42> H  -21.289   28.710   47.548
| 43> H  -20.733   27.082   49.195
| 44> H  -19.064   26.913   48.597
| 45> C  -23.396   25.070   46.435
| 46> H  -23.660   24.760   45.416
| 47> H  -22.795   24.273   46.891
| 48> O  -22.586   26.394   46.375
| 49> C  -24.706   25.204   47.260
| 50> C  -24.423   25.722   48.675
| 51> C  -24.244   27.239   48.423
| 52> C  -25.254   27.528   47.285
| 53> O  -25.581   26.223   46.670
| 54> H  -25.249   24.258   47.225
| 55> O  -25.648   25.460   49.593
| 56> H  -23.542   25.261   49.134
| 57> H  -24.436   27.843   49.316
| 58> H  -23.219   27.447   48.092
| 59> H  -24.844   28.194   46.519
| 60> H  -26.192   27.952   47.657
| 61> H  -26.542   25.914   49.152
| 62> *
| 63>
| 64>                          ****END OF INPUT****
 Total Charge           Charge          ....    0
 Multiplicity           Mult            ....    1
 Number of Electrons    NEL             ....  102
FINAL SINGLE POINT ENERGY      -652.838891239474
FINAL SINGLE POINT ENERGY      -652.862384136336
FINAL SINGLE POINT ENERGY      -652.866308123601
FINAL SINGLE POINT ENERGY      -652.867686390471
FINAL SINGLE POINT ENERGY      -652.867829231470
FINAL SINGLE POINT ENERGY      -652.867850811577
                    ***********************HURRAY********************

CARTESIAN COORDINATES (ANGSTROEM)
---------------------------------
  C    -21.085589   26.146742   46.254090
  C    -20.421745   27.482264   45.916341
  C    -20.388258   28.176785   47.297193
  C    -20.145688   27.003850   48.274323
  O    -20.503281   25.770832   47.525679
  H    -20.867840   25.324879   45.565107
  H    -19.408263   27.295093   45.545114
  H    -20.981064   28.040615   45.163098
  H    -19.604113   28.937488   47.365255
  H    -21.349080   28.661060   47.494606
  H    -20.760157   27.061238   49.176785
  H    -19.095216   26.900666   48.560799
  C    -23.289698   25.119780   46.445443
  H    -23.546528   24.791752   45.430457
  H    -22.691221   24.341878   46.937011
  O    -22.510266   26.355241   46.346445
  C    -24.576697   25.320242   47.237702
  C    -24.431716   25.781714   48.694660
  C    -24.314978   27.319658   48.529052
  C    -25.249191   27.612766   47.328478
  O    -25.455261   26.321872   46.630910
  H    -25.121915   24.368873   47.204518
  O    -25.600698   25.397271   49.472831
  H    -23.581400   25.336476   49.211328
  H    -24.621449   27.833605   49.444406
  H    -23.285321   27.580328   48.283924
  H    -24.809721   28.324064   46.623895
  H    -26.236212   27.974880   47.634603
  H    -26.409434   25.641086   48.974949

 Multiplicity           Mult            ....    1
 Number of Electrons    NEL             ....  102
 Basis Dimension        Dim             ....  149

ORBITAL ENERGIES
----------------

  NO   OCC          E(Eh)            E(eV)
   0   2.0000     -19.150056      -521.0995
   1   2.0000     -19.145674      -520.9803
   2   2.0000     -19.136388      -520.7276
   3   2.0000     -19.133648      -520.6530
   4   2.0000     -10.283160      -279.8190
   5   2.0000     -10.234330      -278.4903
   6   2.0000     -10.232379      -278.4372
   7   2.0000     -10.230849      -278.3955
   8   2.0000     -10.230574      -278.3881
   9   2.0000     -10.221707      -278.1468
  10   2.0000     -10.191152      -277.3153
  11   2.0000     -10.189924      -277.2819
  12   2.0000     -10.176237      -276.9095
  13   2.0000      -1.059452       -28.8292
  14   2.0000      -1.030846       -28.0507
  15   2.0000      -1.002863       -27.2893
  16   2.0000      -0.995535       -27.0899
  17   2.0000      -0.793825       -21.6011
  18   2.0000      -0.775481       -21.1019
  19   2.0000      -0.763440       -20.7742
  20   2.0000      -0.733710       -19.9653
  21   2.0000      -0.673246       -18.3200
  22   2.0000      -0.604313       -16.4442
  23   2.0000      -0.597560       -16.2604
  24   2.0000      -0.594818       -16.1858
  25   2.0000      -0.579157       -15.7597
  26   2.0000      -0.524975       -14.2853
  27   2.0000      -0.506745       -13.7892
  28   2.0000      -0.499549       -13.5934
  29   2.0000      -0.487643       -13.2694
  30   2.0000      -0.472482       -12.8569
  31   2.0000      -0.460485       -12.5304
  32   2.0000      -0.446902       -12.1608
  33   2.0000      -0.435278       -11.8445
  34   2.0000      -0.421847       -11.4790
  35   2.0000      -0.412454       -11.2234
  36   2.0000      -0.407150       -11.0791
  37   2.0000      -0.386033       -10.5045
  38   2.0000      -0.375722       -10.2239
  39   2.0000      -0.366005        -9.9595
  40   2.0000      -0.361666        -9.8414
  41   2.0000      -0.356040        -9.6883
  42   2.0000      -0.349821        -9.5191
  43   2.0000      -0.336333        -9.1521
  44   2.0000      -0.323784        -8.8106
  45   2.0000      -0.305693        -8.3183
  46   2.0000      -0.300936        -8.1889
  47   2.0000      -0.274689        -7.4747
  48   2.0000      -0.264922        -7.2089
  49   2.0000      -0.256635        -6.9834
  50   2.0000      -0.240423        -6.5422
  51   0.0000       0.064042         1.7427
  52   0.0000       0.081261         2.2112
  53   0.0000       0.091163         2.4807
  54   0.0000       0.102252         2.7824
  55   0.0000       0.106422         2.8959

MULLIKEN ATOMIC CHARGES
-----------------------
   0 C :    0.281342
   1 C :   -0.260766
   2 C :   -0.307168
   3 C :   -0.005299
   4 O :   -0.512660
   5 H :    0.146612
   6 H :    0.148299
   7 H :    0.159238
   8 H :    0.145045
   9 H :    0.162524
  10 H :    0.146214
  11 H :    0.146337
  12 C :    0.000821
  13 H :    0.146481
  14 H :    0.151048
  15 O :   -0.521887
  16 C :    0.064341
  17 C :    0.075041
  18 C :   -0.292972
  19 C :   -0.018527
  20 O :   -0.527329
  21 H :    0.154185
  22 O :   -0.605340
  23 H :    0.157908
  24 H :    0.145663
  25 H :    0.171468
  26 H :    0.151051
  27 H :    0.135216
  28 H :    0.363113
Sum of atomic charges:   -0.0000000

LOEWDIN ATOMIC CHARGES
----------------------
   0 C :    0.170818
   1 C :   -0.213725
   2 C :   -0.217340
   3 C :   -0.029065
   4 O :   -0.331569
   5 H :    0.098278
   6 H :    0.116183
   7 H :    0.125497
   8 H :    0.115320
   9 H :    0.115728
  10 H :    0.103825
  11 H :    0.105098
  12 C :   -0.040059
  13 H :    0.106485
  14 H :    0.110267
  15 O :   -0.328335
  16 C :    0.014148
  17 C :    0.039656
  18 C :   -0.241425
  19 C :   -0.032816
  20 O :   -0.331027
  21 H :    0.115820
  22 O :   -0.417889
  23 H :    0.118835
  24 H :    0.117473
  25 H :    0.123956
  26 H :    0.107732
  27 H :    0.096118
  28 H :    0.282015

  Mayer bond orders larger than 0.100000
B(  0-C ,  1-C ) :   0.9479 B(  0-C ,  4-O ) :   0.9014 B(  0-C ,  5-H ) :   0.9193
B(  0-C , 15-O ) :   0.8655 B(  1-C ,  2-C ) :   0.9558 B(  1-C ,  6-H ) :   0.9398
B(  1-C ,  7-H ) :   0.9359 B(  2-C ,  3-C ) :   0.9544 B(  2-C ,  8-H ) :   0.9448
B(  2-C ,  9-H ) :   0.9401 B(  3-C ,  4-O ) :   0.8370 B(  3-C , 10-H ) :   0.9335
B(  3-C , 11-H ) :   0.9397 B( 12-C , 13-H ) :   0.9209 B( 12-C , 14-H ) :   0.9063
B( 12-C , 15-O ) :   0.8321 B( 12-C , 16-C ) :   0.9147 B( 16-C , 17-C ) :   0.9087
B( 16-C , 20-O ) :   0.8701 B( 16-C , 21-H ) :   0.9213 B( 17-C , 18-C ) :   0.9232
B( 17-C , 22-O ) :   0.8888 B( 17-C , 23-H ) :   0.9333 B( 18-C , 19-C ) :   0.9454
B( 18-C , 24-H ) :   0.9379 B( 18-C , 25-H ) :   0.9131 B( 19-C , 20-O ) :   0.8416
B( 19-C , 26-H ) :   0.9340 B( 19-C , 27-H ) :   0.9374 B( 22-O , 28-H ) :   0.7957

FINAL SINGLE POINT ENERGY      -652.867851150273

DIPOLE MOMENT
-------------
                                X             Y             Z
Electronic contribution:     -3.64724      -4.36210      -0.64856
Nuclear contribution   :      4.47110       5.10550       0.30802
                        -----------------------------------------
Total Dipole Moment    :      0.82386       0.74339      -0.34054
                        -----------------------------------------
Magnitude (a.u.)       :      1.16075
Magnitude (Debye)      :      2.95040

Rotational constants in cm-1:     0.047804     0.015942     0.015464
Rotational constants in MHz :  1433.116095   477.923664   463.597563

                             ****ORCA TERMINATED NORMALLY****
TOTAL RUN TIME: 0 days 0 hours 30 minutes 19 seconds 17 msec
