                         Program Version 4.2.0 -  RELEASE  -
|  1> # Test redundant internal optimization
|  2> #
|  3> ! RKS B3LYP  Opt TightSCF SmallPrint
|  4>
|  5> %basis
|  6>         Basis "6-31G"
|  7> end
|  8>
|  9> %geom
| 10> Constraints
| 11> { D 4  0  15  12  240.0   C } # D for Dihedral angle
| 12> { D 0  15  12  16  270.0   C } # D for Dihedral angle
| 13> { D 0  4  3  2   C } # D for Dihedral angle
| 14> { D 4  3  2  1   C } # D for Dihedral angle
| 15> { D 3  2  1  0   C } # D for Dihedral angle
| 16> { D 2  1  0  4   C } # D for Dihedral angle
| 17> { D 1  0  4  3   C } # D for Dihedral angle
| 18> { D 16  20  19  18   C } # D for Dihedral angle
| 19> { D 20  19  18  17   C } # D for Dihedral angle
| 20> { D 19  18  17  16   C } # D for Dihedral angle
| 21> { D 18  17  16  20   C } # D for Dihedral angle
| 22> { D 17  16  20  19   C } # D for Dihedral angle
| 23> { D 15  12  16  20   C } # D for Dihedral angle
| 24> end
| 25> end
| 26>
| 27>
| 28> #%pal
| 29> #nprocs 8
| 30> #end
| 31>
| 32> * xyz 0 1
| 33> C  -21.048   26.222   46.251
| 34> C  -20.361   27.558   45.944
| 35> C  -20.329   28.222   47.341
| 36> C  -20.110   27.022   48.296
| 37> O  -20.473   25.807   47.535
| 38> H  -20.833   25.428   45.533
| 39> H  -19.344   27.382   45.576
| 40> H  -20.898   28.157   45.201
| 41> H  -19.543   28.978   47.434
| 42> H  -21.289   28.710   47.548
| 43> H  -20.733   27.082   49.195
| 44> H  -19.064   26.913   48.597
| 45> C  -23.430   25.483   45.442
| 46> H  -22.889   24.544   45.267
| 47> H  -24.393   25.241   45.910
| 48> O  -22.586   26.394   46.375
| 49> C  -23.725   26.141   44.066
| 50> C  -24.654   25.265   43.218
| 51> C  -26.035   25.581   43.838
| 52> C  -25.916   27.078   44.219
| 53> O  -24.471   27.391   44.245
| 54> H  -22.780   26.399   43.583
| 55> O  -24.604   25.717   41.733
| 56> H  -24.401   24.200   43.263
| 57> H  -26.864   25.390   43.149
| 58> H  -26.196   24.966   44.732
| 59> H  -26.348   27.296   45.203
| 60> H  -26.376   27.735   43.476
| 61> H  -24.854   26.782   41.663
| 62> *
| 63>
| 64>                          ****END OF INPUT****
 Total Charge           Charge          ....    0
 Multiplicity           Mult            ....    1
 Number of Electrons    NEL             ....  102
FINAL SINGLE POINT ENERGY      -652.832504875061
FINAL SINGLE POINT ENERGY      -652.855428303843
FINAL SINGLE POINT ENERGY      -652.859400451205
FINAL SINGLE POINT ENERGY      -652.860110451761
FINAL SINGLE POINT ENERGY      -652.860193243616
FINAL SINGLE POINT ENERGY      -652.860201509406
FINAL SINGLE POINT ENERGY      -652.860203315365
                    ***********************HURRAY********************

CARTESIAN COORDINATES (ANGSTROEM)
---------------------------------
  C    -21.071871   26.184104   46.168697
  C    -20.462537   27.557000   45.886848
  C    -20.463420   28.201229   47.293531
  C    -20.177106   27.001898   48.223481
  O    -20.481735   25.788186   47.423136
  H    -20.833813   25.400007   45.442374
  H    -19.438171   27.433473   45.514813
  H    -21.044035   28.123420   45.156320
  H    -19.718086   28.995843   47.394299
  H    -21.451968   28.621464   47.500642
  H    -20.801478   26.994779   49.120139
  H    -19.124432   26.929267   48.513419
  C    -23.350646   25.482492   45.482373
  H    -22.863596   24.511235   45.300051
  H    -24.256718   25.306671   46.070129
  O    -22.509073   26.321875   46.310928
  C    -23.694232   26.140150   44.142663
  C    -24.631217   25.295061   43.266867
  C    -26.020472   25.642255   43.863941
  C    -25.867455   27.132313   44.260428
  O    -24.411140   27.405503   44.317549
  H    -22.771162   26.380795   43.604000
  O    -24.530504   25.684633   41.869447
  H    -24.410499   24.226746   43.281708
  H    -26.809264   25.473376   43.126512
  H    -26.226021   25.014923   44.738376
  H    -26.310436   27.359796   45.234701
  H    -26.294291   27.811839   43.516016
  H    -24.521624   26.663668   41.809614

 Multiplicity           Mult            ....    1
 Number of Electrons    NEL             ....  102
 Basis Dimension        Dim             ....  149

ORBITAL ENERGIES
----------------

  NO   OCC          E(Eh)            E(eV)
   0   2.0000     -19.143992      -520.9345
   1   2.0000     -19.142549      -520.8952
   2   2.0000     -19.139027      -520.7994
   3   2.0000     -19.134426      -520.6742
   4   2.0000     -10.276729      -279.6440
   5   2.0000     -10.246695      -278.8267
   6   2.0000     -10.237007      -278.5631
   7   2.0000     -10.235228      -278.5147
   8   2.0000     -10.233376      -278.4643
   9   2.0000     -10.219825      -278.0956
  10   2.0000     -10.193453      -277.3780
  11   2.0000     -10.179809      -277.0067
  12   2.0000     -10.179693      -277.0035
  13   2.0000      -1.050142       -28.5758
  14   2.0000      -1.038692       -28.2642
  15   2.0000      -1.009458       -27.4688
  16   2.0000      -0.991511       -26.9804
  17   2.0000      -0.788916       -21.4675
  18   2.0000      -0.780310       -21.2333
  19   2.0000      -0.767914       -20.8960
  20   2.0000      -0.730439       -19.8762
  21   2.0000      -0.675074       -18.3697
  22   2.0000      -0.608276       -16.5520
  23   2.0000      -0.601560       -16.3693
  24   2.0000      -0.592925       -16.1343
  25   2.0000      -0.578210       -15.7339
  26   2.0000      -0.527842       -14.3633
  27   2.0000      -0.513773       -13.9805
  28   2.0000      -0.493469       -13.4280
  29   2.0000      -0.489693       -13.3252
  30   2.0000      -0.472547       -12.8586
  31   2.0000      -0.455752       -12.4016
  32   2.0000      -0.451574       -12.2880
  33   2.0000      -0.445011       -12.1094
  34   2.0000      -0.425118       -11.5680
  35   2.0000      -0.413417       -11.2496
  36   2.0000      -0.398562       -10.8454
  37   2.0000      -0.394959       -10.7474
  38   2.0000      -0.376178       -10.2363
  39   2.0000      -0.367578       -10.0023
  40   2.0000      -0.360147        -9.8001
  41   2.0000      -0.351951        -9.5771
  42   2.0000      -0.347710        -9.4617
  43   2.0000      -0.334617        -9.1054
  44   2.0000      -0.315273        -8.5790
  45   2.0000      -0.310705        -8.4547
  46   2.0000      -0.301645        -8.2082
  47   2.0000      -0.274869        -7.4796
  48   2.0000      -0.268328        -7.3016
  49   2.0000      -0.252176        -6.8621
  50   2.0000      -0.236407        -6.4330
  51   0.0000       0.062394         1.6978
  52   0.0000       0.081963         2.2303
  53   0.0000       0.087389         2.3780
  54   0.0000       0.093656         2.5485
  55   0.0000       0.101091         2.7508

MULLIKEN ATOMIC CHARGES
-----------------------
   0 C :    0.277874
   1 C :   -0.254836
   2 C :   -0.301232
   3 C :   -0.000770
   4 O :   -0.503943
   5 H :    0.135895
   6 H :    0.139449
   7 H :    0.159349
   8 H :    0.139318
   9 H :    0.168266
  10 H :    0.150185
  11 H :    0.139114
  12 C :   -0.019067
  13 H :    0.130326
  14 H :    0.153595
  15 O :   -0.497506
  16 C :    0.065378
  17 C :    0.076403
  18 C :   -0.302175
  19 C :   -0.027890
  20 O :   -0.511818
  21 H :    0.156230
  22 O :   -0.599934
  23 H :    0.152956
  24 H :    0.164418
  25 H :    0.147670
  26 H :    0.150390
  27 H :    0.147812
  28 H :    0.364541
Sum of atomic charges:   -0.0000000

LOEWDIN ATOMIC CHARGES
----------------------
   0 C :    0.173606
   1 C :   -0.221653
   2 C :   -0.216326
   3 C :   -0.026445
   4 O :   -0.317822
   5 H :    0.095547
   6 H :    0.110778
   7 H :    0.123502
   8 H :    0.112988
   9 H :    0.122272
  10 H :    0.107168
  11 H :    0.100892
  12 C :   -0.040102
  13 H :    0.097947
  14 H :    0.112521
  15 O :   -0.318185
  16 C :    0.003727
  17 C :    0.034185
  18 C :   -0.242058
  19 C :   -0.037519
  20 O :   -0.323670
  21 H :    0.111714
  22 O :   -0.413641
  23 H :    0.115594
  24 H :    0.127557
  25 H :    0.114304
  26 H :    0.106720
  27 H :    0.103069
  28 H :    0.283329

  Mayer bond orders larger than 0.100000
B(  0-C ,  1-C ) :   0.9414 B(  0-C ,  4-O ) :   0.9302 B(  0-C ,  5-H ) :   0.9169
B(  0-C , 15-O ) :   0.8448 B(  1-C ,  2-C ) :   0.9574 B(  1-C ,  6-H ) :   0.9372
B(  1-C ,  7-H ) :   0.9347 B(  2-C ,  3-C ) :   0.9546 B(  2-C ,  8-H ) :   0.9453
B(  2-C ,  9-H ) :   0.9426 B(  3-C ,  4-O ) :   0.8376 B(  3-C , 10-H ) :   0.9352
B(  3-C , 11-H ) :   0.9399 B( 12-C , 13-H ) :   0.9111 B( 12-C , 14-H ) :   0.9372
B( 12-C , 15-O ) :   0.8693 B( 12-C , 16-C ) :   0.8742 B( 16-C , 17-C ) :   0.8970
B( 16-C , 20-O ) :   0.8652 B( 16-C , 21-H ) :   0.9264 B( 17-C , 18-C ) :   0.9111
B( 17-C , 22-O ) :   0.8942 B( 17-C , 23-H ) :   0.9325 B( 18-C , 19-C ) :   0.9405
B( 18-C , 24-H ) :   0.9372 B( 18-C , 25-H ) :   0.9336 B( 19-C , 20-O ) :   0.8481
B( 19-C , 26-H ) :   0.9342 B( 19-C , 27-H ) :   0.9372 B( 22-O , 28-H ) :   0.7941

FINAL SINGLE POINT ENERGY      -652.860203500192

DIPOLE MOMENT
-------------
                                X             Y             Z
Electronic contribution:     -0.00240      -1.68163      -1.28992
Nuclear contribution   :     -0.33407       1.95094       1.21315
                        -----------------------------------------
Total Dipole Moment    :     -0.33647       0.26931      -0.07677
                        -----------------------------------------
Magnitude (a.u.)       :      0.43776
Magnitude (Debye)      :      1.11269

Rotational constants in cm-1:     0.065042     0.011500     0.011322
Rotational constants in MHz :  1949.910564   344.758911   339.412597

                             ****ORCA TERMINATED NORMALLY****
TOTAL RUN TIME: 0 days 0 hours 22 minutes 3 seconds 842 msec
