                         Program Version 4.2.0 -  RELEASE  -
|  1> # Test redundant internal optimization
|  2> #
|  3> ! RKS B3LYP  Opt TightSCF SmallPrint
|  4>
|  5> %basis
|  6>         Basis "6-31G"
|  7> end
|  8>
|  9> %geom
| 10> Constraints
| 11> { D 4  0  15  12  240.0   C } # D for Dihedral angle
| 12> { D 0  15  12  16  165.0   C } # D for Dihedral angle
| 13> { D 0  4  3  2   C } # D for Dihedral angle
| 14> { D 4  3  2  1   C } # D for Dihedral angle
| 15> { D 3  2  1  0   C } # D for Dihedral angle
| 16> { D 2  1  0  4   C } # D for Dihedral angle
| 17> { D 1  0  4  3   C } # D for Dihedral angle
| 18> { D 16  20  19  18   C } # D for Dihedral angle
| 19> { D 20  19  18  17   C } # D for Dihedral angle
| 20> { D 19  18  17  16   C } # D for Dihedral angle
| 21> { D 18  17  16  20   C } # D for Dihedral angle
| 22> { D 17  16  20  19   C } # D for Dihedral angle
| 23> { D 15  12  16  20   C } # D for Dihedral angle
| 24> end
| 25> end
| 26>
| 27>
| 28> #%pal
| 29> #nprocs 8
| 30> #end
| 31>
| 32> * xyz 0 1
| 33> C  -21.048   26.222   46.251
| 34> C  -20.361   27.558   45.944
| 35> C  -20.329   28.222   47.341
| 36> C  -20.110   27.022   48.296
| 37> O  -20.473   25.807   47.535
| 38> H  -20.833   25.428   45.533
| 39> H  -19.344   27.382   45.576
| 40> H  -20.898   28.157   45.201
| 41> H  -19.543   28.978   47.434
| 42> H  -21.289   28.710   47.548
| 43> H  -20.733   27.082   49.195
| 44> H  -19.064   26.913   48.597
| 45> C  -23.430   25.483   45.442
| 46> H  -23.372   25.864   44.415
| 47> H  -23.038   24.457   45.450
| 48> O  -22.586   26.394   46.375
| 49> C  -24.926   25.420   45.857
| 50> C  -25.703   24.424   44.988
| 51> C  -25.308   23.073   45.630
| 52> C  -25.191   23.420   47.136
| 53> O  -25.058   24.891   47.219
| 54> H  -25.338   26.431   45.865
| 55> H  -26.780   24.599   45.086
| 56> O  -25.329   24.507   43.483
| 57> H  -26.042   22.283   45.441
| 58> H  -24.343   22.736   45.235
| 59> H  -24.317   22.955   47.606
| 60> H  -26.086   23.144   47.699
| 61> H  -24.255   24.334   43.359
| 62> *
| 63>
| 64>                          ****END OF INPUT****
 Total Charge           Charge          ....    0
 Multiplicity           Mult            ....    1
 Number of Electrons    NEL             ....  102
FINAL SINGLE POINT ENERGY      -652.826052703467
FINAL SINGLE POINT ENERGY      -652.849925170848
FINAL SINGLE POINT ENERGY      -652.854367928071
FINAL SINGLE POINT ENERGY      -652.855184395020
FINAL SINGLE POINT ENERGY      -652.855338869477
FINAL SINGLE POINT ENERGY      -652.855366955998
FINAL SINGLE POINT ENERGY      -652.855373213190
FINAL SINGLE POINT ENERGY      -652.855374214316
                    ***********************HURRAY********************

CARTESIAN COORDINATES (ANGSTROEM)
---------------------------------
  C    -21.018714   26.181013   46.184157
  C    -20.432191   27.573430   45.954398
  C    -20.515667   28.192784   47.370029
  C    -20.242633   26.984034   48.292109
  O    -20.478165   25.778274   47.458200
  H    -20.727020   25.416901   45.457039
  H    -19.388537   27.483345   45.629505
  H    -20.989492   28.138147   45.203358
  H    -19.796805   29.003918   47.518631
  H    -21.523368   28.583510   47.539260
  H    -20.909096   26.945317   49.156923
  H    -19.203112   26.932810   48.630406
  C    -23.227738   25.436855   45.369251
  H    -23.204254   25.825063   44.340106
  H    -22.802593   24.420537   45.371598
  O    -22.462519   26.287541   46.257122
  C    -24.674247   25.424713   45.858339
  C    -25.601542   24.521107   45.028625
  C    -25.341460   23.123422   45.665527
  C    -25.122819   23.465886   47.155778
  O    -24.812861   24.916998   47.217391
  H    -25.026945   26.459695   45.890894
  H    -26.638270   24.825304   45.188398
  O    -25.417220   24.584977   43.592918
  H    -26.173522   22.433060   45.502788
  H    -24.441168   22.679360   45.219644
  H    -24.297457   22.906279   47.606371
  H    -26.025296   23.306487   47.753717
  H    -24.632291   24.065233   43.324517

 Multiplicity           Mult            ....    1
 Number of Electrons    NEL             ....  102
 Basis Dimension        Dim             ....  149

ORBITAL ENERGIES
----------------

  NO   OCC          E(Eh)            E(eV)
   0   2.0000     -19.150848      -521.1211
   1   2.0000     -19.136273      -520.7245
   2   2.0000     -19.134195      -520.6679
   3   2.0000     -19.132468      -520.6209
   4   2.0000     -10.275439      -279.6089
   5   2.0000     -10.245160      -278.7850
   6   2.0000     -10.231553      -278.4147
   7   2.0000     -10.229456      -278.3577
   8   2.0000     -10.228096      -278.3207
   9   2.0000     -10.218185      -278.0510
  10   2.0000     -10.195768      -277.4410
  11   2.0000     -10.180820      -277.0342
  12   2.0000     -10.179758      -277.0053
  13   2.0000      -1.047967       -28.5166
  14   2.0000      -1.033315       -28.1179
  15   2.0000      -1.014380       -27.6027
  16   2.0000      -0.989691       -26.9308
  17   2.0000      -0.784438       -21.3456
  18   2.0000      -0.780315       -21.2335
  19   2.0000      -0.765557       -20.8319
  20   2.0000      -0.726313       -19.7640
  21   2.0000      -0.678363       -18.4592
  22   2.0000      -0.611279       -16.6337
  23   2.0000      -0.592837       -16.1319
  24   2.0000      -0.586202       -15.9514
  25   2.0000      -0.579670       -15.7736
  26   2.0000      -0.528835       -14.3903
  27   2.0000      -0.510175       -13.8826
  28   2.0000      -0.496330       -13.5058
  29   2.0000      -0.483867       -13.1667
  30   2.0000      -0.466781       -12.7018
  31   2.0000      -0.457045       -12.4368
  32   2.0000      -0.446113       -12.1394
  33   2.0000      -0.431429       -11.7398
  34   2.0000      -0.425443       -11.5769
  35   2.0000      -0.419093       -11.4041
  36   2.0000      -0.401335       -10.9209
  37   2.0000      -0.396399       -10.7866
  38   2.0000      -0.377654       -10.2765
  39   2.0000      -0.370311       -10.0767
  40   2.0000      -0.351998        -9.5783
  41   2.0000      -0.348753        -9.4901
  42   2.0000      -0.345835        -9.4107
  43   2.0000      -0.329182        -8.9575
  44   2.0000      -0.315114        -8.5747
  45   2.0000      -0.311481        -8.4758
  46   2.0000      -0.301693        -8.2095
  47   2.0000      -0.271406        -7.3853
  48   2.0000      -0.259607        -7.0643
  49   2.0000      -0.241569        -6.5734
  50   2.0000      -0.239472        -6.5164
  51   0.0000       0.049434         1.3452
  52   0.0000       0.077285         2.1030
  53   0.0000       0.087380         2.3777
  54   0.0000       0.096733         2.6322
  55   0.0000       0.107153         2.9158

MULLIKEN ATOMIC CHARGES
-----------------------
   0 C :    0.285458
   1 C :   -0.252140
   2 C :   -0.300327
   3 C :    0.000174
   4 O :   -0.501940
   5 H :    0.133639
   6 H :    0.139566
   7 H :    0.145272
   8 H :    0.138479
   9 H :    0.166549
  10 H :    0.156174
  11 H :    0.137307
  12 C :   -0.010214
  13 H :    0.132077
  14 H :    0.121797
  15 O :   -0.508872
  16 C :    0.096008
  17 C :    0.084878
  18 C :   -0.328608
  19 C :   -0.011252
  20 O :   -0.500733
  21 H :    0.164088
  22 H :    0.166910
  23 O :   -0.601336
  24 H :    0.159754
  25 H :    0.130920
  26 H :    0.151381
  27 H :    0.149484
  28 H :    0.355508
Sum of atomic charges:   -0.0000000

LOEWDIN ATOMIC CHARGES
----------------------
   0 C :    0.175972
   1 C :   -0.220962
   2 C :   -0.216355
   3 C :   -0.025942
   4 O :   -0.316396
   5 H :    0.095764
   6 H :    0.110604
   7 H :    0.117794
   8 H :    0.112541
   9 H :    0.121388
  10 H :    0.110248
  11 H :    0.100039
  12 C :   -0.049128
  13 H :    0.095306
  14 H :    0.088672
  15 O :   -0.321926
  16 C :    0.022839
  17 C :    0.035398
  18 C :   -0.242367
  19 C :   -0.030113
  20 O :   -0.309425
  21 H :    0.120004
  22 H :    0.119169
  23 O :   -0.408620
  24 H :    0.122970
  25 H :    0.102547
  26 H :    0.106489
  27 H :    0.105921
  28 H :    0.277571

  Mayer bond orders larger than 0.100000
B(  0-C ,  1-C ) :   0.9429 B(  0-C ,  4-O ) :   0.9299 B(  0-C ,  5-H ) :   0.9199
B(  0-C , 15-O ) :   0.8469 B(  1-C ,  2-C ) :   0.9579 B(  1-C ,  6-H ) :   0.9374
B(  1-C ,  7-H ) :   0.9386 B(  2-C ,  3-C ) :   0.9547 B(  2-C ,  8-H ) :   0.9454
B(  2-C ,  9-H ) :   0.9427 B(  3-C ,  4-O ) :   0.8376 B(  3-C , 10-H ) :   0.9340
B(  3-C , 11-H ) :   0.9400 B( 12-C , 13-H ) :   0.9037 B( 12-C , 14-H ) :   0.9138
B( 12-C , 15-O ) :   0.8483 B( 12-C , 16-C ) :   0.9067 B( 16-C , 17-C ) :   0.8740
B( 16-C , 20-O ) :   0.8767 B( 16-C , 21-H ) :   0.9295 B( 17-C , 18-C ) :   0.9231
B( 17-C , 22-H ) :   0.9340 B( 17-C , 23-O ) :   0.8946 B( 18-C , 19-C ) :   0.9389
B( 18-C , 24-H ) :   0.9413 B( 18-C , 25-H ) :   0.9405 B( 19-C , 20-O ) :   0.8511
B( 19-C , 26-H ) :   0.9302 B( 19-C , 27-H ) :   0.9372 B( 23-O , 28-H ) :   0.7991

FINAL SINGLE POINT ENERGY      -652.855374309139

DIPOLE MOMENT
-------------
                                X             Y             Z
Electronic contribution:     -2.18501      -0.80250      -0.04661
Nuclear contribution   :      2.59520       0.41968      -0.57530
                        -----------------------------------------
Total Dipole Moment    :      0.41018      -0.38282      -0.62191
                        -----------------------------------------
Magnitude (a.u.)       :      0.83760
Magnitude (Debye)      :      2.12900

Rotational constants in cm-1:     0.056846     0.012413     0.011237
Rotational constants in MHz :  1704.211586   372.126419   336.864427

                             ****ORCA TERMINATED NORMALLY****
TOTAL RUN TIME: 0 days 0 hours 23 minutes 32 seconds 528 msec
