                         Program Version 4.2.0 -  RELEASE  -
|  1> # Test redundant internal optimization
|  2> #
|  3> ! RKS B3LYP  Opt TightSCF SmallPrint
|  4>
|  5> %basis
|  6>         Basis "6-31G"
|  7> end
|  8>
|  9> %geom
| 10> Constraints
| 11> { D 4  0  15  12  45.0   C } # D for Dihedral angle
| 12> { D 0  15  12  16  150.0   C } # D for Dihedral angle
| 13> { D 0  4  3  2   C } # D for Dihedral angle
| 14> { D 4  3  2  1   C } # D for Dihedral angle
| 15> { D 3  2  1  0   C } # D for Dihedral angle
| 16> { D 2  1  0  4   C } # D for Dihedral angle
| 17> { D 1  0  4  3   C } # D for Dihedral angle
| 18> { D 16  20  19  18   C } # D for Dihedral angle
| 19> { D 20  19  18  17   C } # D for Dihedral angle
| 20> { D 19  18  17  16   C } # D for Dihedral angle
| 21> { D 18  17  16  20   C } # D for Dihedral angle
| 22> { D 17  16  20  19   C } # D for Dihedral angle
| 23> { D 15  12  16  20   C } # D for Dihedral angle
| 24> end
| 25> end
| 26>
| 27>
| 28> #%pal
| 29> #nprocs 8
| 30> #end
| 31>
| 32> * xyz 0 1
| 33> C  -21.048   26.222   46.251
| 34> C  -20.361   27.558   45.944
| 35> C  -20.329   28.222   47.341
| 36> C  -20.110   27.022   48.296
| 37> O  -20.473   25.807   47.535
| 38> H  -20.833   25.428   45.533
| 39> H  -19.344   27.382   45.576
| 40> H  -20.898   28.157   45.201
| 41> H  -19.543   28.978   47.434
| 42> H  -21.289   28.710   47.548
| 43> H  -20.733   27.082   49.195
| 44> H  -19.064   26.913   48.597
| 45> C  -23.065   27.161   47.638
| 46> H  -23.226   26.448   48.455
| 47> H  -22.305   27.885   47.959
| 48> O  -22.586   26.394   46.375
| 49> C  -24.389   27.940   47.401
| 50> C  -24.770   28.776   48.628
| 51> C  -23.840   30.003   48.472
| 52> C  -23.772   30.200   46.937
| 53> O  -24.218   28.928   46.330
| 54> H  -25.161   27.241   47.073
| 55> H  -25.821   29.078   48.567
| 56> O  -24.554   28.024   49.970
| 57> H  -24.218   30.891   48.990
| 58> H  -22.846   29.776   48.877
| 59> H  -22.758   30.427   46.588
| 60> H  -24.451   30.981   46.585
| 61> H  -23.507   27.713   50.054
| 62> *
| 63>
| 64>                          ****END OF INPUT****
 Total Charge           Charge          ....    0
 Multiplicity           Mult            ....    1
 Number of Electrons    NEL             ....  102
FINAL SINGLE POINT ENERGY      -652.804406731125
FINAL SINGLE POINT ENERGY      -652.832535486421
FINAL SINGLE POINT ENERGY      -652.847631235767
FINAL SINGLE POINT ENERGY      -652.849990864425
FINAL SINGLE POINT ENERGY      -652.850366160719
FINAL SINGLE POINT ENERGY      -652.850459133861
FINAL SINGLE POINT ENERGY      -652.850469374096
FINAL SINGLE POINT ENERGY      -652.850469655762
                    ***********************HURRAY********************

CARTESIAN COORDINATES (ANGSTROEM)
---------------------------------
  C    -21.156904   26.312957   46.361414
  C    -20.316438   27.513032   45.901562
  C    -19.874460   28.136587   47.256407
  C    -19.685756   26.889670   48.157290
  O    -20.418852   25.784374   47.491235
  H    -21.183945   25.513699   45.618382
  H    -19.450367   27.144797   45.341430
  H    -20.891700   28.196838   45.273208
  H    -18.947365   28.712367   47.168026
  H    -20.642689   28.812263   47.641883
  H    -20.080599   27.020176   49.169973
  H    -18.638200   26.580953   48.222845
  C    -23.045786   27.207894   47.793019
  H    -23.268471   26.452301   48.556477
  H    -22.312991   27.910258   48.204360
  O    -22.555794   26.552960   46.594541
  C    -24.327281   27.943483   47.405119
  C    -24.979447   28.739804   48.548845
  C    -24.163076   30.067031   48.519189
  C    -23.883670   30.262416   47.013672
  O    -24.098052   28.943363   46.364311
  H    -25.013795   27.214140   46.966365
  H    -26.025969   28.932017   48.303671
  O    -25.025851   28.073996   49.833236
  H    -24.713567   30.900324   48.964162
  H    -23.232508   29.937517   49.088573
  H    -22.862471   30.601090   46.809211
  H    -24.583392   30.964247   46.550460
  H    -24.132603   28.026446   50.231134

 Multiplicity           Mult            ....    1
 Number of Electrons    NEL             ....  102
 Basis Dimension        Dim             ....  149

ORBITAL ENERGIES
----------------

  NO   OCC          E(Eh)            E(eV)
   0   2.0000     -19.151864      -521.1487
   1   2.0000     -19.144269      -520.9420
   2   2.0000     -19.139456      -520.8111
   3   2.0000     -19.138254      -520.7784
   4   2.0000     -10.276329      -279.6331
   5   2.0000     -10.247461      -278.8476
   6   2.0000     -10.233661      -278.4721
   7   2.0000     -10.233041      -278.4552
   8   2.0000     -10.231696      -278.4186
   9   2.0000     -10.230847      -278.3955
  10   2.0000     -10.198901      -277.5262
  11   2.0000     -10.195204      -277.4256
  12   2.0000     -10.186037      -277.1762
  13   2.0000      -1.051857       -28.6225
  14   2.0000      -1.035281       -28.1714
  15   2.0000      -1.017641       -27.6914
  16   2.0000      -0.993611       -27.0375
  17   2.0000      -0.789026       -21.4705
  18   2.0000      -0.785478       -21.3739
  19   2.0000      -0.773935       -21.0598
  20   2.0000      -0.733617       -19.9627
  21   2.0000      -0.684150       -18.6167
  22   2.0000      -0.613945       -16.7063
  23   2.0000      -0.605391       -16.4735
  24   2.0000      -0.597388       -16.2558
  25   2.0000      -0.574646       -15.6369
  26   2.0000      -0.529252       -14.4017
  27   2.0000      -0.510161       -13.8822
  28   2.0000      -0.505115       -13.7449
  29   2.0000      -0.494446       -13.4546
  30   2.0000      -0.468804       -12.7568
  31   2.0000      -0.461661       -12.5624
  32   2.0000      -0.450970       -12.2715
  33   2.0000      -0.435033       -11.8379
  34   2.0000      -0.429243       -11.6803
  35   2.0000      -0.417692       -11.3660
  36   2.0000      -0.411694       -11.2028
  37   2.0000      -0.404130       -10.9969
  38   2.0000      -0.382053       -10.3962
  39   2.0000      -0.376955       -10.2575
  40   2.0000      -0.361424        -9.8348
  41   2.0000      -0.358450        -9.7539
  42   2.0000      -0.345413        -9.3992
  43   2.0000      -0.336798        -9.1647
  44   2.0000      -0.319847        -8.7035
  45   2.0000      -0.315364        -8.5815
  46   2.0000      -0.307573        -8.3695
  47   2.0000      -0.272768        -7.4224
  48   2.0000      -0.262255        -7.1363
  49   2.0000      -0.251551        -6.8450
  50   2.0000      -0.240558        -6.5459
  51   0.0000       0.042798         1.1646
  52   0.0000       0.055586         1.5126
  53   0.0000       0.083598         2.2748
  54   0.0000       0.091304         2.4845
  55   0.0000       0.103289         2.8106

MULLIKEN ATOMIC CHARGES
-----------------------
   0 C :    0.298913
   1 C :   -0.265810
   2 C :   -0.322372
   3 C :   -0.012551
   4 O :   -0.508392
   5 H :    0.166927
   6 H :    0.150143
   7 H :    0.166898
   8 H :    0.145524
   9 H :    0.148812
  10 H :    0.136870
  11 H :    0.150791
  12 C :   -0.003697
  13 H :    0.148204
  14 H :    0.108245
  15 O :   -0.518061
  16 C :    0.090919
  17 C :    0.079631
  18 C :   -0.324207
  19 C :   -0.010758
  20 O :   -0.506479
  21 H :    0.172107
  22 H :    0.172546
  23 O :   -0.597654
  24 H :    0.158506
  25 H :    0.130055
  26 H :    0.136736
  27 H :    0.152492
  28 H :    0.355662
Sum of atomic charges:    0.0000000

LOEWDIN ATOMIC CHARGES
----------------------
   0 C :    0.178773
   1 C :   -0.226950
   2 C :   -0.225267
   3 C :   -0.035654
   4 O :   -0.323062
   5 H :    0.113437
   6 H :    0.118470
   7 H :    0.128162
   8 H :    0.115654
   9 H :    0.105830
  10 H :    0.097979
  11 H :    0.106528
  12 C :   -0.046432
  13 H :    0.106815
  14 H :    0.085380
  15 O :   -0.312466
  16 C :    0.020053
  17 C :    0.034550
  18 C :   -0.242997
  19 C :   -0.031398
  20 O :   -0.314829
  21 H :    0.123269
  22 H :    0.121643
  23 O :   -0.405710
  24 H :    0.123266
  25 H :    0.101674
  26 H :    0.098283
  27 H :    0.107361
  28 H :    0.277638

  Mayer bond orders larger than 0.100000
B(  0-C ,  1-C ) :   0.9145 B(  0-C ,  4-O ) :   0.8970 B(  0-C ,  5-H ) :   0.9359
B(  0-C , 15-O ) :   0.8943 B(  1-C ,  2-C ) :   0.9551 B(  1-C ,  6-H ) :   0.9350
B(  1-C ,  7-H ) :   0.9333 B(  2-C ,  3-C ) :   0.9471 B(  2-C ,  8-H ) :   0.9444
B(  2-C ,  9-H ) :   0.9389 B(  3-C ,  4-O ) :   0.8469 B(  3-C , 10-H ) :   0.9336
B(  3-C , 11-H ) :   0.9383 B( 12-C , 13-H ) :   0.9098 B( 12-C , 14-H ) :   0.9077
B( 12-C , 15-O ) :   0.8382 B( 12-C , 16-C ) :   0.9064 B( 16-C , 17-C ) :   0.8743
B( 16-C , 20-O ) :   0.8646 B( 16-C , 21-H ) :   0.9267 B( 17-C , 18-C ) :   0.9226
B( 17-C , 22-H ) :   0.9318 B( 17-C , 23-O ) :   0.8987 B( 18-C , 19-C ) :   0.9375
B( 18-C , 24-H ) :   0.9421 B( 18-C , 25-H ) :   0.9410 B( 19-C , 20-O ) :   0.8534
B( 19-C , 26-H ) :   0.9311 B( 19-C , 27-H ) :   0.9371 B( 23-O , 28-H ) :   0.7981

FINAL SINGLE POINT ENERGY      -652.850468224094

DIPOLE MOMENT
-------------
                                X             Y             Z
Electronic contribution:     -4.07090      -5.09119      -1.39853
Nuclear contribution   :      5.07734       6.53593       1.97331
                        -----------------------------------------
Total Dipole Moment    :      1.00643       1.44474       0.57479
                        -----------------------------------------
Magnitude (a.u.)       :      1.85217
Magnitude (Debye)      :      4.70785

Rotational constants in cm-1:     0.044803     0.015542     0.014664
Rotational constants in MHz :  1343.171528   465.926172   439.602865

                             ****ORCA TERMINATED NORMALLY****
TOTAL RUN TIME: 0 days 0 hours 28 minutes 53 seconds 840 msec
