                         Program Version 4.2.0 -  RELEASE  -
|  1> # Test redundant internal optimization
|  2> #
|  3> ! RKS B3LYP  Opt TightSCF SmallPrint
|  4>
|  5> %basis
|  6>         Basis "6-31G"
|  7> end
|  8>
|  9> %geom
| 10> Constraints
| 11> { D 4  0  15  12  90.0   C } # D for Dihedral angle
| 12> { D 0  15  12  16  90.0   C } # D for Dihedral angle
| 13> { D 0  4  3  2   C } # D for Dihedral angle
| 14> { D 4  3  2  1   C } # D for Dihedral angle
| 15> { D 3  2  1  0   C } # D for Dihedral angle
| 16> { D 2  1  0  4   C } # D for Dihedral angle
| 17> { D 1  0  4  3   C } # D for Dihedral angle
| 18> { D 16  20  19  18   C } # D for Dihedral angle
| 19> { D 20  19  18  17   C } # D for Dihedral angle
| 20> { D 19  18  17  16   C } # D for Dihedral angle
| 21> { D 18  17  16  20   C } # D for Dihedral angle
| 22> { D 17  16  20  19   C } # D for Dihedral angle
| 23> { D 15  12  16  20   C } # D for Dihedral angle
| 24> end
| 25> end
| 26>
| 27>
| 28> #%pal
| 29> #nprocs 8
| 30> #end
| 31>
| 32> * xyz 0 1
| 33> C  -21.048   26.222   46.251
| 34> C  -20.361   27.558   45.944
| 35> C  -20.329   28.222   47.341
| 36> C  -20.110   27.022   48.296
| 37> O  -20.473   25.807   47.535
| 38> H  -20.833   25.428   45.533
| 39> H  -19.344   27.382   45.576
| 40> H  -20.898   28.157   45.201
| 41> H  -19.543   28.978   47.434
| 42> H  -21.289   28.710   47.548
| 43> H  -20.733   27.082   49.195
| 44> H  -19.064   26.913   48.597
| 45> C  -23.061   27.816   46.783
| 46> H  -23.995   27.735   47.354
| 47> H  -22.311   28.303   47.419
| 48> O  -22.586   26.394   46.375
| 49> C  -23.314   28.739   45.559
| 50> C  -24.472   28.218   44.700
| 51> C  -25.702   28.695   45.509
| 52> C  -25.235   30.054   46.090
| 53> O  -23.759   30.065   46.001
| 54> H  -22.377   28.880   45.018
| 55> O  -24.441   28.892   43.301
| 56> H  -24.450   27.132   44.559
| 57> H  -26.602   28.791   44.895
| 58> H  -25.920   27.984   46.315
| 59> H  -25.533   30.187   47.135
| 60> H  -25.600   30.904   45.507
| 61> H  -24.462   29.982   43.416
| 62> *
| 63>
| 64>                          ****END OF INPUT****
 Total Charge           Charge          ....    0
 Multiplicity           Mult            ....    1
 Number of Electrons    NEL             ....  102
FINAL SINGLE POINT ENERGY      -652.791866066476
FINAL SINGLE POINT ENERGY      -652.832551237847
FINAL SINGLE POINT ENERGY      -652.851528436334
FINAL SINGLE POINT ENERGY      -652.854763216770
FINAL SINGLE POINT ENERGY      -652.855218002789
FINAL SINGLE POINT ENERGY      -652.855325623618
FINAL SINGLE POINT ENERGY      -652.855338458046
FINAL SINGLE POINT ENERGY      -652.855341137266
FINAL SINGLE POINT ENERGY      -652.855340735381
                    ***********************HURRAY********************

CARTESIAN COORDINATES (ANGSTROEM)
---------------------------------
  C    -21.202866   26.372568   46.379882
  C    -20.234255   27.482048   45.944348
  C    -19.905207   28.179699   47.298949
  C    -19.908345   26.989802   48.292279
  O    -20.635249   25.889829   47.617604
  H    -21.194807   25.514121   45.706673
  H    -19.337568   27.003292   45.537431
  H    -20.637459   28.153971   45.184789
  H    -18.935281   28.686295   47.275253
  H    -20.658279   28.929070   47.555751
  H    -20.406594   27.220208   49.238762
  H    -18.899412   26.622868   48.501764
  C    -23.204510   27.921471   46.866976
  H    -24.150812   27.657574   47.348241
  H    -22.601665   28.457619   47.605857
  O    -22.620646   26.643858   46.480623
  C    -23.458609   28.836137   45.664464
  C    -24.475022   28.297188   44.647835
  C    -25.818935   28.635631   45.340682
  C    -25.524266   29.979881   46.052780
  O    -24.044694   30.097807   46.133866
  H    -22.519862   29.095427   45.168489
  O    -24.336074   28.973902   43.367743
  H    -24.344446   27.236115   44.439111
  H    -26.623261   28.711422   44.604697
  H    -26.084250   27.852887   46.058798
  H    -25.939165   30.027251   47.063954
  H    -25.884562   30.844649   45.487164
  H    -24.258898   29.939411   43.522234

 Multiplicity           Mult            ....    1
 Number of Electrons    NEL             ....  102
 Basis Dimension        Dim             ....  149

ORBITAL ENERGIES
----------------

  NO   OCC          E(Eh)            E(eV)
   0   2.0000     -19.148817      -521.0658
   1   2.0000     -19.145427      -520.9736
   2   2.0000     -19.139535      -520.8132
   3   2.0000     -19.138482      -520.7846
   4   2.0000     -10.280386      -279.7435
   5   2.0000     -10.239155      -278.6216
   6   2.0000     -10.236084      -278.5380
   7   2.0000     -10.235245      -278.5152
   8   2.0000     -10.234063      -278.4830
   9   2.0000     -10.228751      -278.3385
  10   2.0000     -10.194812      -277.4149
  11   2.0000     -10.194699      -277.4119
  12   2.0000     -10.190418      -277.2954
  13   2.0000      -1.050915       -28.5969
  14   2.0000      -1.039012       -28.2730
  15   2.0000      -1.007827       -27.4244
  16   2.0000      -0.996255       -27.1095
  17   2.0000      -0.790049       -21.4983
  18   2.0000      -0.784191       -21.3389
  19   2.0000      -0.772333       -21.0162
  20   2.0000      -0.736406       -20.0386
  21   2.0000      -0.681610       -18.5476
  22   2.0000      -0.608079       -16.5467
  23   2.0000      -0.605035       -16.4638
  24   2.0000      -0.603612       -16.4251
  25   2.0000      -0.575103       -15.6493
  26   2.0000      -0.530562       -14.4373
  27   2.0000      -0.509363       -13.8605
  28   2.0000      -0.502129       -13.6636
  29   2.0000      -0.494151       -13.4465
  30   2.0000      -0.474157       -12.9025
  31   2.0000      -0.461755       -12.5650
  32   2.0000      -0.446734       -12.1563
  33   2.0000      -0.440757       -11.9936
  34   2.0000      -0.430497       -11.7144
  35   2.0000      -0.414925       -11.2907
  36   2.0000      -0.413297       -11.2464
  37   2.0000      -0.396169       -10.7803
  38   2.0000      -0.385448       -10.4886
  39   2.0000      -0.372051       -10.1240
  40   2.0000      -0.366403        -9.9703
  41   2.0000      -0.359022        -9.7695
  42   2.0000      -0.349003        -9.4968
  43   2.0000      -0.333655        -9.0792
  44   2.0000      -0.315432        -8.5833
  45   2.0000      -0.311915        -8.4876
  46   2.0000      -0.295928        -8.0526
  47   2.0000      -0.281962        -7.6726
  48   2.0000      -0.268276        -7.3001
  49   2.0000      -0.257889        -7.0175
  50   2.0000      -0.242745        -6.6054
  51   0.0000       0.061268         1.6672
  52   0.0000       0.065434         1.7806
  53   0.0000       0.083654         2.2763
  54   0.0000       0.095974         2.6116
  55   0.0000       0.098592         2.6828

MULLIKEN ATOMIC CHARGES
-----------------------
   0 C :    0.307005
   1 C :   -0.296712
   2 C :   -0.314984
   3 C :   -0.008321
   4 O :   -0.498118
   5 H :    0.167501
   6 H :    0.160052
   7 H :    0.153421
   8 H :    0.147102
   9 H :    0.154424
  10 H :    0.146077
  11 H :    0.147343
  12 C :   -0.022151
  13 H :    0.154558
  14 H :    0.145712
  15 O :   -0.524293
  16 C :    0.048820
  17 C :    0.090634
  18 C :   -0.303789
  19 C :   -0.031283
  20 O :   -0.528074
  21 H :    0.159445
  22 O :   -0.602623
  23 H :    0.175853
  24 H :    0.164553
  25 H :    0.152025
  26 H :    0.148089
  27 H :    0.147001
  28 H :    0.360735
Sum of atomic charges:   -0.0000000

LOEWDIN ATOMIC CHARGES
----------------------
   0 C :    0.176587
   1 C :   -0.231235
   2 C :   -0.223121
   3 C :   -0.032730
   4 O :   -0.317709
   5 H :    0.113274
   6 H :    0.124818
   7 H :    0.117279
   8 H :    0.116748
   9 H :    0.110631
  10 H :    0.103778
  11 H :    0.104758
  12 C :   -0.041825
  13 H :    0.112748
  14 H :    0.103523
  15 O :   -0.322878
  16 C :    0.004340
  17 C :    0.037394
  18 C :   -0.241916
  19 C :   -0.037881
  20 O :   -0.332571
  21 H :    0.109681
  22 O :   -0.414470
  23 H :    0.127512
  24 H :    0.127764
  25 H :    0.117144
  26 H :    0.104913
  27 H :    0.102909
  28 H :    0.280532

  Mayer bond orders larger than 0.100000
B(  0-C ,  1-C ) :   0.9219 B(  0-C ,  4-O ) :   0.9080 B(  0-C ,  5-H ) :   0.9351
B(  0-C , 15-O ) :   0.8915 B(  1-C ,  2-C ) :   0.9537 B(  1-C ,  6-H ) :   0.9332
B(  1-C ,  7-H ) :   0.9258 B(  2-C ,  3-C ) :   0.9462 B(  2-C ,  8-H ) :   0.9448
B(  2-C ,  9-H ) :   0.9377 B(  3-C ,  4-O ) :   0.8479 B(  3-C , 10-H ) :   0.9343
B(  3-C , 11-H ) :   0.9387 B( 12-C , 13-H ) :   0.9379 B( 12-C , 14-H ) :   0.9092
B( 12-C , 15-O ) :   0.8375 B( 12-C , 16-C ) :   0.8784 B( 16-C , 17-C ) :   0.9123
B( 16-C , 20-O ) :   0.8378 B( 16-C , 21-H ) :   0.9189 B( 17-C , 18-C ) :   0.9138
B( 17-C , 22-O ) :   0.8875 B( 17-C , 23-H ) :   0.9238 B( 18-C , 19-C ) :   0.9425
B( 18-C , 24-H ) :   0.9372 B( 18-C , 25-H ) :   0.9329 B( 19-C , 20-O ) :   0.8400
B( 19-C , 26-H ) :   0.9356 B( 19-C , 27-H ) :   0.9383 B( 22-O , 28-H ) :   0.7976

FINAL SINGLE POINT ENERGY      -652.855329735070

DIPOLE MOMENT
-------------
                                X             Y             Z
Electronic contribution:     -1.02997      -2.29690      -1.49635
Nuclear contribution   :      1.13368       3.22072       1.80013
                        -----------------------------------------
Total Dipole Moment    :      0.10372       0.92381       0.30378
                        -----------------------------------------
Magnitude (a.u.)       :      0.97800
Magnitude (Debye)      :      2.48587

Rotational constants in cm-1:     0.056379     0.013242     0.012914
Rotational constants in MHz :  1690.208089   396.974930   387.162130

                             ****ORCA TERMINATED NORMALLY****
TOTAL RUN TIME: 0 days 0 hours 32 minutes 8 seconds 302 msec
