                         Program Version 4.2.0 -  RELEASE  -
|  1> # Test redundant internal optimization
|  2> #
|  3> ! RKS B3LYP  Opt TightSCF SmallPrint
|  4>
|  5> %basis
|  6>         Basis "6-31G"
|  7> end
|  8>
|  9> %geom
| 10> Constraints
| 11> { D 4  0  15  12  135.0   C } # D for Dihedral angle
| 12> { D 0  15  12  16  195.0   C } # D for Dihedral angle
| 13> { D 0  4  3  2   C } # D for Dihedral angle
| 14> { D 4  3  2  1   C } # D for Dihedral angle
| 15> { D 3  2  1  0   C } # D for Dihedral angle
| 16> { D 2  1  0  4   C } # D for Dihedral angle
| 17> { D 1  0  4  3   C } # D for Dihedral angle
| 18> { D 16  20  19  18   C } # D for Dihedral angle
| 19> { D 20  19  18  17   C } # D for Dihedral angle
| 20> { D 19  18  17  16   C } # D for Dihedral angle
| 21> { D 18  17  16  20   C } # D for Dihedral angle
| 22> { D 17  16  20  19   C } # D for Dihedral angle
| 23> { D 15  12  16  20   C } # D for Dihedral angle
| 24> end
| 25> end
| 26>
| 27>
| 28> #%pal
| 29> #nprocs 8
| 30> #end
| 31>
| 32> * xyz 0 1
| 33> C  -21.048   26.222   46.251
| 34> C  -20.361   27.558   45.944
| 35> C  -20.329   28.222   47.341
| 36> C  -20.110   27.022   48.296
| 37> O  -20.473   25.807   47.535
| 38> H  -20.833   25.428   45.533
| 39> H  -19.344   27.382   45.576
| 40> H  -20.898   28.157   45.201
| 41> H  -19.543   28.978   47.434
| 42> H  -21.289   28.710   47.548
| 43> H  -20.733   27.082   49.195
| 44> H  -19.064   26.913   48.597
| 45> C  -23.162   27.680   45.721
| 46> H  -22.525   28.535   45.981
| 47> H  -23.173   27.582   44.627
| 48> O  -22.586   26.394   46.375
| 49> C  -24.612   27.991   46.183
| 50> C  -25.544   26.800   45.931
| 51> C  -25.199   25.875   47.123
| 52> C  -24.911   26.874   48.272
| 53> O  -24.657   28.185   47.636
| 54> H  -24.940   28.926   45.725
| 55> O  -27.026   27.259   46.006
| 56> H  -25.379   26.321   44.960
| 57> H  -26.007   25.179   47.368
| 58> H  -24.305   25.283   46.893
| 59> H  -24.038   26.588   48.868
| 60> H  -25.769   27.001   48.939
| 61> H  -27.215   27.742   46.971
| 62> *
| 63>
| 64>                          ****END OF INPUT****
 Total Charge           Charge          ....    0
 Multiplicity           Mult            ....    1
 Number of Electrons    NEL             ....  102
FINAL SINGLE POINT ENERGY      -652.827744511492
FINAL SINGLE POINT ENERGY      -652.850927557240
FINAL SINGLE POINT ENERGY      -652.855679383337
FINAL SINGLE POINT ENERGY      -652.857803556477
FINAL SINGLE POINT ENERGY      -652.858004374556
FINAL SINGLE POINT ENERGY      -652.858045575400
FINAL SINGLE POINT ENERGY      -652.858046099138
                    ***********************HURRAY********************

CARTESIAN COORDINATES (ANGSTROEM)
---------------------------------
  C    -21.136535   26.329891   46.242877
  C    -20.257205   27.543236   45.932562
  C    -20.210554   28.268789   47.304102
  C    -20.214144   27.093887   48.306944
  O    -20.703139   25.915054   47.549314
  H    -20.985509   25.472825   45.582805
  H    -19.261201   27.179939   45.657441
  H    -20.621467   28.171249   45.115820
  H    -19.324508   28.902100   47.408257
  H    -21.096461   28.896568   47.442432
  H    -20.874656   27.262372   49.160939
  H    -19.212673   26.840788   48.666301
  C    -23.178205   27.756023   45.692672
  H    -22.624806   28.665338   45.952589
  H    -23.204944   27.668094   44.595341
  O    -22.572647   26.581853   46.293436
  C    -24.600038   27.918024   46.229037
  C    -25.579385   26.762009   45.977160
  C    -25.236466   25.797525   47.143930
  C    -24.887042   26.762111   48.303797
  O    -24.603590   28.080907   47.682296
  H    -25.005537   28.844561   45.804558
  O    -26.954043   27.238699   46.029702
  H    -25.474245   26.304168   44.993042
  H    -26.087321   25.148316   47.370996
  H    -24.368822   25.193864   46.876742
  H    -23.999387   26.438404   48.852684
  H    -25.715741   26.911445   49.004445
  H    -27.082730   27.747959   46.857779

 Multiplicity           Mult            ....    1
 Number of Electrons    NEL             ....  102
 Basis Dimension        Dim             ....  149

ORBITAL ENERGIES
----------------

  NO   OCC          E(Eh)            E(eV)
   0   2.0000     -19.144534      -520.9492
   1   2.0000     -19.142559      -520.8955
   2   2.0000     -19.134978      -520.6892
   3   2.0000     -19.131946      -520.6067
   4   2.0000     -10.284904      -279.8665
   5   2.0000     -10.236764      -278.5565
   6   2.0000     -10.232943      -278.4525
   7   2.0000     -10.232423      -278.4384
   8   2.0000     -10.228463      -278.3306
   9   2.0000     -10.217755      -278.0393
  10   2.0000     -10.196680      -277.4658
  11   2.0000     -10.193761      -277.3863
  12   2.0000     -10.169976      -276.7391
  13   2.0000      -1.055430       -28.7197
  14   2.0000      -1.029221       -28.0065
  15   2.0000      -1.001875       -27.2624
  16   2.0000      -0.992630       -27.0108
  17   2.0000      -0.792738       -21.5715
  18   2.0000      -0.777600       -21.1596
  19   2.0000      -0.760678       -20.6991
  20   2.0000      -0.734600       -19.9895
  21   2.0000      -0.677178       -18.4270
  22   2.0000      -0.607801       -16.5391
  23   2.0000      -0.599061       -16.3013
  24   2.0000      -0.592372       -16.1193
  25   2.0000      -0.568475       -15.4690
  26   2.0000      -0.527818       -14.3627
  27   2.0000      -0.507681       -13.8147
  28   2.0000      -0.501681       -13.6514
  29   2.0000      -0.484871       -13.1940
  30   2.0000      -0.474356       -12.9079
  31   2.0000      -0.457731       -12.4555
  32   2.0000      -0.447950       -12.1893
  33   2.0000      -0.438061       -11.9203
  34   2.0000      -0.423985       -11.5372
  35   2.0000      -0.408043       -11.1034
  36   2.0000      -0.404617       -11.0102
  37   2.0000      -0.386238       -10.5101
  38   2.0000      -0.382725       -10.4145
  39   2.0000      -0.364727        -9.9247
  40   2.0000      -0.361729        -9.8432
  41   2.0000      -0.356695        -9.7062
  42   2.0000      -0.353501        -9.6192
  43   2.0000      -0.326012        -8.8712
  44   2.0000      -0.314994        -8.5714
  45   2.0000      -0.302602        -8.2342
  46   2.0000      -0.293900        -7.9974
  47   2.0000      -0.272532        -7.4160
  48   2.0000      -0.261781        -7.1234
  49   2.0000      -0.253694        -6.9034
  50   2.0000      -0.239799        -6.5253
  51   0.0000       0.068425         1.8619
  52   0.0000       0.079387         2.1602
  53   0.0000       0.095173         2.5898
  54   0.0000       0.104287         2.8378
  55   0.0000       0.108881         2.9628

MULLIKEN ATOMIC CHARGES
-----------------------
   0 C :    0.325776
   1 C :   -0.306030
   2 C :   -0.307562
   3 C :   -0.003190
   4 O :   -0.498639
   5 H :    0.153487
   6 H :    0.155984
   7 H :    0.148158
   8 H :    0.146183
   9 H :    0.167505
  10 H :    0.156110
  11 H :    0.144250
  12 C :    0.003312
  13 H :    0.138388
  14 H :    0.127182
  15 O :   -0.536260
  16 C :    0.067539
  17 C :    0.080775
  18 C :   -0.288183
  19 C :   -0.023432
  20 O :   -0.530506
  21 H :    0.152477
  22 O :   -0.604597
  23 H :    0.148025
  24 H :    0.144983
  25 H :    0.185646
  26 H :    0.158873
  27 H :    0.132245
  28 H :    0.361500
Sum of atomic charges:   -0.0000000

LOEWDIN ATOMIC CHARGES
----------------------
   0 C :    0.184799
   1 C :   -0.233152
   2 C :   -0.219414
   3 C :   -0.027339
   4 O :   -0.310388
   5 H :    0.103677
   6 H :    0.122219
   7 H :    0.115898
   8 H :    0.116566
   9 H :    0.117394
  10 H :    0.109638
  11 H :    0.103818
  12 C :   -0.037841
  13 H :    0.099829
  14 H :    0.092405
  15 O :   -0.335504
  16 C :    0.015518
  17 C :    0.040219
  18 C :   -0.241854
  19 C :   -0.034116
  20 O :   -0.333053
  21 H :    0.114079
  22 O :   -0.418096
  23 H :    0.114577
  24 H :    0.116620
  25 H :    0.136068
  26 H :    0.111750
  27 H :    0.094352
  28 H :    0.281329

  Mayer bond orders larger than 0.100000
B(  0-C ,  1-C ) :   0.9344 B(  0-C ,  4-O ) :   0.9308 B(  0-C ,  5-H ) :   0.9286
B(  0-C , 15-O ) :   0.8378 B(  1-C ,  2-C ) :   0.9498 B(  1-C ,  6-H ) :   0.9338
B(  1-C ,  7-H ) :   0.9288 B(  2-C ,  3-C ) :   0.9519 B(  2-C ,  8-H ) :   0.9451
B(  2-C ,  9-H ) :   0.9358 B(  3-C ,  4-O ) :   0.8372 B(  3-C , 10-H ) :   0.9333
B(  3-C , 11-H ) :   0.9396 B( 12-C , 13-H ) :   0.9028 B( 12-C , 14-H ) :   0.9109
B( 12-C , 15-O ) :   0.8466 B( 12-C , 16-C ) :   0.8984 B( 16-C , 17-C ) :   0.9087
B( 16-C , 20-O ) :   0.8777 B( 16-C , 21-H ) :   0.9231 B( 17-C , 18-C ) :   0.9257
B( 17-C , 22-O ) :   0.8888 B( 17-C , 23-H ) :   0.9368 B( 18-C , 19-C ) :   0.9486
B( 18-C , 24-H ) :   0.9372 B( 18-C , 25-H ) :   0.9152 B( 19-C , 20-O ) :   0.8337
B( 19-C , 26-H ) :   0.9320 B( 19-C , 27-H ) :   0.9369 B( 22-O , 28-H ) :   0.7970

FINAL SINGLE POINT ENERGY      -652.858043876733

DIPOLE MOMENT
-------------
                                X             Y             Z
Electronic contribution:     -3.47514      -1.57470      -0.33717
Nuclear contribution   :      4.57620       2.17610       0.08008
                        -----------------------------------------
Total Dipole Moment    :      1.10107       0.60140      -0.25709
                        -----------------------------------------
Magnitude (a.u.)       :      1.28067
Magnitude (Debye)      :      3.25521

Rotational constants in cm-1:     0.057755     0.014721     0.014147
Rotational constants in MHz :  1731.452608   441.334291   424.110492

                             ****ORCA TERMINATED NORMALLY****
TOTAL RUN TIME: 0 days 1 hours 15 minutes 36 seconds 682 msec
