                         Program Version 4.2.0 -  RELEASE  -
|  1> # Test redundant internal optimization
|  2> #
|  3> ! RKS B3LYP  Opt TightSCF SmallPrint
|  4>
|  5> %basis
|  6>         Basis "6-31G"
|  7> end
|  8>
|  9> %geom
| 10> Constraints
| 11> { D 4  0  15  12  255.0   C } # D for Dihedral angle
| 12> { D 0  15  12  16  0.0   C } # D for Dihedral angle
| 13> { D 0  4  3  2   C } # D for Dihedral angle
| 14> { D 4  3  2  1   C } # D for Dihedral angle
| 15> { D 3  2  1  0   C } # D for Dihedral angle
| 16> { D 2  1  0  4   C } # D for Dihedral angle
| 17> { D 1  0  4  3   C } # D for Dihedral angle
| 18> { D 16  20  19  18   C } # D for Dihedral angle
| 19> { D 20  19  18  17   C } # D for Dihedral angle
| 20> { D 19  18  17  16   C } # D for Dihedral angle
| 21> { D 18  17  16  20   C } # D for Dihedral angle
| 22> { D 17  16  20  19   C } # D for Dihedral angle
| 23> { D 15  12  16  20   C } # D for Dihedral angle
| 24> end
| 25> end
| 26>
| 27>
| 28> #%pal
| 29> #nprocs 8
| 30> #end
| 31>
| 32> * xyz 0 1
| 33> C  -21.048   26.222   46.251
| 34> C  -20.361   27.558   45.944
| 35> C  -20.329   28.222   47.341
| 36> C  -20.110   27.022   48.296
| 37> O  -20.473   25.807   47.535
| 38> H  -20.833   25.428   45.533
| 39> H  -19.344   27.382   45.576
| 40> H  -20.898   28.157   45.201
| 41> H  -19.543   28.978   47.434
| 42> H  -21.289   28.710   47.548
| 43> H  -20.733   27.082   49.195
| 44> H  -19.064   26.913   48.597
| 45> C  -23.431   25.260   45.734
| 46> H  -24.057   24.794   46.505
| 47> H  -24.091   25.665   44.956
| 48> O  -22.586   26.394   46.375
| 49> C  -22.556   24.154   45.081
| 50> C  -23.420   23.114   44.359
| 51> C  -23.753   23.846   43.038
| 52> C  -22.463   24.653   42.748
| 53> O  -21.716   24.723   44.022
| 54> H  -21.883   23.739   45.835
| 55> H  -22.834   22.208   44.163
| 56> O  -24.688   22.712   45.161
| 57> H  -24.007   23.158   42.224
| 58> H  -24.605   24.520   43.185
| 59> H  -22.674   25.670   42.399
| 60> H  -21.814   24.156   42.020
| 61> H  -25.291   23.602   45.369
| 62> *
| 63>
| 64>                          ****END OF INPUT****
 Total Charge           Charge          ....    0
 Multiplicity           Mult            ....    1
 Number of Electrons    NEL             ....  102
FINAL SINGLE POINT ENERGY      -652.822838867305
FINAL SINGLE POINT ENERGY      -652.846109901124
FINAL SINGLE POINT ENERGY      -652.853133956976
FINAL SINGLE POINT ENERGY      -652.855145666005
FINAL SINGLE POINT ENERGY      -652.855453537592
FINAL SINGLE POINT ENERGY      -652.855527486996
FINAL SINGLE POINT ENERGY      -652.855533449218
FINAL SINGLE POINT ENERGY      -652.855535000532
                    ***********************HURRAY********************

CARTESIAN COORDINATES (ANGSTROEM)
---------------------------------
  C    -20.868855   26.227387   46.223045
  C    -20.344779   27.649507   46.014767
  C    -20.465334   28.246776   47.438768
  C    -20.142207   27.036974   48.345703
  O    -20.315644   25.833735   47.499871
  H    -20.546515   25.500359   45.482651
  H    -19.296425   27.605876   45.696616
  H    -20.922311   28.193401   45.264968
  H    -19.783575   29.086232   47.605249
  H    -21.490257   28.590474   47.605795
  H    -20.807795   26.961689   49.210011
  H    -19.103353   27.032959   48.690870
  C    -23.196463   25.312876   45.720509
  H    -23.813821   24.915476   46.536141
  H    -23.850931   25.851336   45.021555
  O    -22.315617   26.317219   46.298248
  C    -22.539694   24.127575   45.012511
  C    -23.554364   23.150702   44.387841
  C    -23.876262   23.848397   43.029500
  C    -22.520187   24.482606   42.643834
  O    -21.703082   24.535455   43.884713
  H    -21.873987   23.612526   45.711789
  H    -23.063629   22.190551   44.214083
  O    -24.703367   22.828885   45.202048
  H    -24.241656   23.141043   42.280383
  H    -24.650009   24.612099   43.182245
  H    -22.620319   25.495613   42.242569
  H    -21.966848   23.870883   41.925680
  H    -25.316716   23.590389   45.253035

 Multiplicity           Mult            ....    1
 Number of Electrons    NEL             ....  102
 Basis Dimension        Dim             ....  149

ORBITAL ENERGIES
----------------

  NO   OCC          E(Eh)            E(eV)
   0   2.0000     -19.154789      -521.2283
   1   2.0000     -19.149296      -521.0788
   2   2.0000     -19.131222      -520.5870
   3   2.0000     -19.124654      -520.4083
   4   2.0000     -10.262120      -279.2465
   5   2.0000     -10.252325      -278.9800
   6   2.0000     -10.239037      -278.6184
   7   2.0000     -10.238132      -278.5937
   8   2.0000     -10.231342      -278.4090
   9   2.0000     -10.213175      -277.9146
  10   2.0000     -10.201975      -277.6099
  11   2.0000     -10.173917      -276.8464
  12   2.0000     -10.172003      -276.7943
  13   2.0000      -1.044181       -28.4136
  14   2.0000      -1.035442       -28.1758
  15   2.0000      -1.023433       -27.8490
  16   2.0000      -0.980805       -26.6891
  17   2.0000      -0.789950       -21.4956
  18   2.0000      -0.777423       -21.1548
  19   2.0000      -0.765338       -20.8259
  20   2.0000      -0.727059       -19.7843
  21   2.0000      -0.679433       -18.4883
  22   2.0000      -0.619273       -16.8513
  23   2.0000      -0.602028       -16.3820
  24   2.0000      -0.585953       -15.9446
  25   2.0000      -0.559315       -15.2197
  26   2.0000      -0.537546       -14.6274
  27   2.0000      -0.511846       -13.9280
  28   2.0000      -0.494644       -13.4599
  29   2.0000      -0.474390       -12.9088
  30   2.0000      -0.471978       -12.8432
  31   2.0000      -0.453457       -12.3392
  32   2.0000      -0.437787       -11.9128
  33   2.0000      -0.434947       -11.8355
  34   2.0000      -0.432751       -11.7758
  35   2.0000      -0.420360       -11.4386
  36   2.0000      -0.407053       -11.0765
  37   2.0000      -0.392319       -10.6755
  38   2.0000      -0.386686       -10.5223
  39   2.0000      -0.366539        -9.9740
  40   2.0000      -0.357261        -9.7216
  41   2.0000      -0.344381        -9.3711
  42   2.0000      -0.337949        -9.1961
  43   2.0000      -0.333270        -9.0687
  44   2.0000      -0.325478        -8.8567
  45   2.0000      -0.308213        -8.3869
  46   2.0000      -0.295086        -8.0297
  47   2.0000      -0.278216        -7.5706
  48   2.0000      -0.258183        -7.0255
  49   2.0000      -0.247469        -6.7340
  50   2.0000      -0.233051        -6.3416
  51   0.0000       0.046738         1.2718
  52   0.0000       0.073128         1.9899
  53   0.0000       0.087063         2.3691
  54   0.0000       0.095766         2.6059
  55   0.0000       0.103977         2.8294

MULLIKEN ATOMIC CHARGES
-----------------------
   0 C :    0.259049
   1 C :   -0.247679
   2 C :   -0.297003
   3 C :    0.001463
   4 O :   -0.509743
   5 H :    0.194938
   6 H :    0.139933
   7 H :    0.144424
   8 H :    0.133913
   9 H :    0.158910
  10 H :    0.143950
  11 H :    0.136142
  12 C :    0.031750
  13 H :    0.144263
  14 H :    0.123326
  15 O :   -0.544449
  16 C :    0.037711
  17 C :    0.085845
  18 C :   -0.324169
  19 C :   -0.010807
  20 O :   -0.524391
  21 H :    0.181056
  22 H :    0.173288
  23 O :   -0.594583
  24 H :    0.161435
  25 H :    0.137642
  26 H :    0.149801
  27 H :    0.155802
  28 H :    0.358181
Sum of atomic charges:   -0.0000000

LOEWDIN ATOMIC CHARGES
----------------------
   0 C :    0.166708
   1 C :   -0.214830
   2 C :   -0.217061
   3 C :   -0.027714
   4 O :   -0.327248
   5 H :    0.121309
   6 H :    0.110868
   7 H :    0.117922
   8 H :    0.109903
   9 H :    0.117481
  10 H :    0.103448
  11 H :    0.099124
  12 C :   -0.040338
  13 H :    0.107894
  14 H :    0.093014
  15 O :   -0.332372
  16 C :    0.000714
  17 C :    0.040313
  18 C :   -0.241514
  19 C :   -0.029095
  20 O :   -0.327731
  21 H :    0.124221
  22 H :    0.121674
  23 O :   -0.401716
  24 H :    0.124473
  25 H :    0.106163
  26 H :    0.105712
  27 H :    0.109021
  28 H :    0.279658

  Mayer bond orders larger than 0.100000
B(  0-C ,  1-C ) :   0.9449 B(  0-C ,  4-O ) :   0.9076 B(  0-C ,  5-H ) :   0.8910
B(  0-C , 15-O ) :   0.8358 B(  1-C ,  2-C ) :   0.9573 B(  1-C ,  6-H ) :   0.9406
B(  1-C ,  7-H ) :   0.9400 B(  2-C ,  3-C ) :   0.9548 B(  2-C ,  8-H ) :   0.9463
B(  2-C ,  9-H ) :   0.9443 B(  3-C ,  4-O ) :   0.8442 B(  3-C , 10-H ) :   0.9357
B(  3-C , 11-H ) :   0.9405 B( 12-C , 13-H ) :   0.9082 B( 12-C , 14-H ) :   0.9272
B( 12-C , 15-O ) :   0.8545 B( 12-C , 16-C ) :   0.9082 B( 16-C , 17-C ) :   0.8707
B( 16-C , 20-O ) :   0.8331 B( 16-C , 21-H ) :   0.9213 B( 17-C , 18-C ) :   0.9225
B( 17-C , 22-H ) :   0.9322 B( 17-C , 23-O ) :   0.9069 B( 18-C , 19-C ) :   0.9398
B( 18-C , 24-H ) :   0.9412 B( 18-C , 25-H ) :   0.9398 B( 19-C , 20-O ) :   0.8348
B( 19-C , 26-H ) :   0.9317 B( 19-C , 27-H ) :   0.9378 B( 23-O , 28-H ) :   0.7965

FINAL SINGLE POINT ENERGY      -652.855535037867

DIPOLE MOMENT
-------------
                                X             Y             Z
Electronic contribution:     -0.30091      -3.95217       1.19069
Nuclear contribution   :     -0.31508       4.51568      -2.24351
                        -----------------------------------------
Total Dipole Moment    :     -0.61600       0.56351      -1.05282
                        -----------------------------------------
Magnitude (a.u.)       :      1.34366
Magnitude (Debye)      :      3.41531

Rotational constants in cm-1:     0.059640     0.013106     0.011977
Rotational constants in MHz :  1787.966477   392.897914   359.052256

                             ****ORCA TERMINATED NORMALLY****
TOTAL RUN TIME: 0 days 1 hours 42 minutes 24 seconds 660 msec
