                         Program Version 4.2.0 -  RELEASE  -
|  1> # Test redundant internal optimization
|  2> #
|  3> ! RKS B3LYP  Opt TightSCF SmallPrint
|  4>
|  5> %basis
|  6>         Basis "6-31G"
|  7> end
|  8>
|  9> %geom
| 10> Constraints
| 11> { D 4  0  15  12  330.0   C } # D for Dihedral angle
| 12> { D 0  15  12  16  15.0   C } # D for Dihedral angle
| 13> { D 0  4  3  2   C } # D for Dihedral angle
| 14> { D 4  3  2  1   C } # D for Dihedral angle
| 15> { D 3  2  1  0   C } # D for Dihedral angle
| 16> { D 2  1  0  4   C } # D for Dihedral angle
| 17> { D 1  0  4  3   C } # D for Dihedral angle
| 18> { D 16  20  19  18   C } # D for Dihedral angle
| 19> { D 20  19  18  17   C } # D for Dihedral angle
| 20> { D 19  18  17  16   C } # D for Dihedral angle
| 21> { D 18  17  16  20   C } # D for Dihedral angle
| 22> { D 17  16  20  19   C } # D for Dihedral angle
| 23> { D 15  12  16  20   C } # D for Dihedral angle
| 24> end
| 25> end
| 26>
| 27>
| 28> #%pal
| 29> #nprocs 8
| 30> #end
| 31>
| 32> * xyz 0 1
| 33> C  -21.048   26.222   46.251
| 34> C  -20.361   27.558   45.944
| 35> C  -20.329   28.222   47.341
| 36> C  -20.110   27.022   48.296
| 37> O  -20.473   25.807   47.535
| 38> H  -20.833   25.428   45.533
| 39> H  -19.344   27.382   45.576
| 40> H  -20.898   28.157   45.201
| 41> H  -19.543   28.978   47.434
| 42> H  -21.289   28.710   47.548
| 43> H  -20.733   27.082   49.195
| 44> H  -19.064   26.913   48.597
| 45> C  -23.271   25.476   47.424
| 46> H  -23.988   26.066   48.008
| 47> H  -23.819   24.665   46.926
| 48> O  -22.586   26.394   46.375
| 49> C  -22.257   24.826   48.407
| 50> C  -22.952   23.840   49.351
| 51> C  -23.107   22.595   48.446
| 52> C  -21.824   22.629   47.579
| 53> O  -21.288   24.004   47.674
| 54> H  -21.693   25.614   48.911
| 55> H  -22.304   23.617   50.207
| 56> O  -24.311   24.365   49.890
| 57> H  -23.201   21.664   49.015
| 58> H  -24.000   22.695   47.818
| 59> H  -22.022   22.394   46.527
| 60> H  -21.049   21.954   47.953
| 61> H  -24.977   24.593   49.052
| 62> *
| 63>
| 64>                          ****END OF INPUT****
 Total Charge           Charge          ....    0
 Multiplicity           Mult            ....    1
 Number of Electrons    NEL             ....  102
FINAL SINGLE POINT ENERGY      -652.766946201113
FINAL SINGLE POINT ENERGY      -652.817698643977
FINAL SINGLE POINT ENERGY      -652.839131169215
FINAL SINGLE POINT ENERGY      -652.843018821144
FINAL SINGLE POINT ENERGY      -652.843653033780
FINAL SINGLE POINT ENERGY      -652.843817792446
FINAL SINGLE POINT ENERGY      -652.843836649213
FINAL SINGLE POINT ENERGY      -652.843842129444
                    ***********************HURRAY********************

CARTESIAN COORDINATES (ANGSTROEM)
---------------------------------
  C    -20.883123   26.351892   46.221441
  C    -20.541261   27.810053   45.918044
  C    -20.339253   28.389628   47.336935
  C    -19.703606   27.214717   48.109759
  O    -19.997398   25.996556   47.302798
  H    -20.657595   25.639615   45.422813
  H    -19.609456   27.844146   45.341287
  H    -21.331053   28.310905   45.354939
  H    -19.706190   29.282261   47.342032
  H    -21.310621   28.654997   47.764868
  H    -20.116105   27.083934   49.114687
  H    -18.613857   27.285295   48.178065
  C    -23.019077   25.426517   47.427165
  H    -23.738191   26.084131   47.929556
  H    -23.588734   24.718389   46.805081
  O    -22.306721   26.294136   46.501635
  C    -22.286431   24.636760   48.515314
  C    -23.238826   23.745724   49.334067
  C    -23.350536   22.477639   48.428935
  C    -21.935858   22.372644   47.819983
  O    -21.292381   23.702432   47.991462
  H    -21.732983   25.323262   49.159353
  H    -22.760146   23.492936   50.282388
  O    -24.500961   24.346530   49.711203
  H    -23.637894   21.590121   48.999545
  H    -24.111950   22.642723   47.655057
  H    -21.947864   22.116856   46.755857
  H    -21.311933   21.646291   48.348689
  H    -25.103999   24.390910   48.941045

 Multiplicity           Mult            ....    1
 Number of Electrons    NEL             ....  102
 Basis Dimension        Dim             ....  149

ORBITAL ENERGIES
----------------

  NO   OCC          E(Eh)            E(eV)
   0   2.0000     -19.149526      -521.0851
   1   2.0000     -19.134380      -520.6729
   2   2.0000     -19.132019      -520.6087
   3   2.0000     -19.130264      -520.5609
   4   2.0000     -10.271608      -279.5047
   5   2.0000     -10.244483      -278.7666
   6   2.0000     -10.229425      -278.3568
   7   2.0000     -10.228222      -278.3241
   8   2.0000     -10.225730      -278.2563
   9   2.0000     -10.220987      -278.1272
  10   2.0000     -10.193654      -277.3834
  11   2.0000     -10.181050      -277.0405
  12   2.0000     -10.177710      -276.9496
  13   2.0000      -1.041677       -28.3455
  14   2.0000      -1.031256       -28.0619
  15   2.0000      -1.010657       -27.5014
  16   2.0000      -0.982980       -26.7483
  17   2.0000      -0.784444       -21.3458
  18   2.0000      -0.779551       -21.2127
  19   2.0000      -0.763205       -20.7679
  20   2.0000      -0.728922       -19.8350
  21   2.0000      -0.677126       -18.4255
  22   2.0000      -0.609363       -16.5816
  23   2.0000      -0.599427       -16.3113
  24   2.0000      -0.592032       -16.1100
  25   2.0000      -0.561186       -15.2706
  26   2.0000      -0.521208       -14.1828
  27   2.0000      -0.508856       -13.8467
  28   2.0000      -0.495586       -13.4856
  29   2.0000      -0.479263       -13.0414
  30   2.0000      -0.460222       -12.5233
  31   2.0000      -0.456715       -12.4279
  32   2.0000      -0.442852       -12.0506
  33   2.0000      -0.426447       -11.6042
  34   2.0000      -0.423895       -11.5348
  35   2.0000      -0.409910       -11.1542
  36   2.0000      -0.406063       -11.0495
  37   2.0000      -0.394171       -10.7259
  38   2.0000      -0.379088       -10.3155
  39   2.0000      -0.363779        -9.8989
  40   2.0000      -0.354360        -9.6426
  41   2.0000      -0.352201        -9.5839
  42   2.0000      -0.339651        -9.2424
  43   2.0000      -0.331648        -9.0246
  44   2.0000      -0.320912        -8.7325
  45   2.0000      -0.310567        -8.4509
  46   2.0000      -0.284881        -7.7520
  47   2.0000      -0.269221        -7.3259
  48   2.0000      -0.254335        -6.9208
  49   2.0000      -0.242795        -6.6068
  50   2.0000      -0.232354        -6.3227
  51   0.0000       0.052435         1.4268
  52   0.0000       0.078769         2.1434
  53   0.0000       0.084966         2.3120
  54   0.0000       0.096048         2.6136
  55   0.0000       0.110719         3.0128

MULLIKEN ATOMIC CHARGES
-----------------------
   0 C :    0.320607
   1 C :   -0.258578
   2 C :   -0.302128
   3 C :   -0.020426
   4 O :   -0.485053
   5 H :    0.147119
   6 H :    0.142515
   7 H :    0.156311
   8 H :    0.139940
   9 H :    0.155353
  10 H :    0.138990
  11 H :    0.149289
  12 C :    0.022103
  13 H :    0.142356
  14 H :    0.116143
  15 O :   -0.562251
  16 C :    0.079197
  17 C :    0.080028
  18 C :   -0.323306
  19 C :   -0.014118
  20 O :   -0.490600
  21 H :    0.157464
  22 H :    0.170158
  23 O :   -0.599500
  24 H :    0.154554
  25 H :    0.134737
  26 H :    0.142137
  27 H :    0.149803
  28 H :    0.357157
Sum of atomic charges:    0.0000000

LOEWDIN ATOMIC CHARGES
----------------------
   0 C :    0.190409
   1 C :   -0.216768
   2 C :   -0.218627
   3 C :   -0.035107
   4 O :   -0.302037
   5 H :    0.098518
   6 H :    0.112320
   7 H :    0.123844
   8 H :    0.113444
   9 H :    0.115414
  10 H :    0.098565
  11 H :    0.105345
  12 C :   -0.037237
  13 H :    0.108331
  14 H :    0.087676
  15 O :   -0.348088
  16 C :    0.010078
  17 C :    0.035690
  18 C :   -0.242447
  19 C :   -0.033609
  20 O :   -0.305764
  21 H :    0.114725
  22 H :    0.120145
  23 O :   -0.406719
  24 H :    0.121100
  25 H :    0.103973
  26 H :    0.102016
  27 H :    0.106021
  28 H :    0.278791

  Mayer bond orders larger than 0.100000
B(  0-C ,  1-C ) :   0.9375 B(  0-C ,  4-O ) :   0.9177 B(  0-C ,  5-H ) :   0.9273
B(  0-C , 15-O ) :   0.8294 B(  1-C ,  2-C ) :   0.9564 B(  1-C ,  6-H ) :   0.9380
B(  1-C ,  7-H ) :   0.9366 B(  2-C ,  3-C ) :   0.9537 B(  2-C ,  8-H ) :   0.9451
B(  2-C ,  9-H ) :   0.9453 B(  3-C ,  4-O ) :   0.8444 B(  3-C , 10-H ) :   0.9296
B(  3-C , 11-H ) :   0.9394 B( 12-C , 13-H ) :   0.9137 B( 12-C , 14-H ) :   0.9253
B( 12-C , 15-O ) :   0.8517 B( 12-C , 16-C ) :   0.9003 B( 16-C , 17-C ) :   0.8669
B( 16-C , 20-O ) :   0.8583 B( 16-C , 21-H ) :   0.9240 B( 17-C , 18-C ) :   0.9220
B( 17-C , 22-H ) :   0.9329 B( 17-C , 23-O ) :   0.8968 B( 18-C , 19-C ) :   0.9375
B( 18-C , 24-H ) :   0.9425 B( 18-C , 25-H ) :   0.9400 B( 19-C , 20-O ) :   0.8556
B( 19-C , 26-H ) :   0.9317 B( 19-C , 27-H ) :   0.9374 B( 23-O , 28-H ) :   0.7981

FINAL SINGLE POINT ENERGY      -652.843842465983

DIPOLE MOMENT
-------------
                                X             Y             Z
Electronic contribution:     -0.21481      -1.57937       0.31904
Nuclear contribution   :     -0.14147       1.51211      -0.54673
                        -----------------------------------------
Total Dipole Moment    :     -0.35628      -0.06726      -0.22770
                        -----------------------------------------
Magnitude (a.u.)       :      0.42815
Magnitude (Debye)      :      1.08826

Rotational constants in cm-1:     0.052673     0.015141     0.014194
Rotational constants in MHz :  1579.104456   453.907121   425.540337

                             ****ORCA TERMINATED NORMALLY****
TOTAL RUN TIME: 0 days 0 hours 31 minutes 39 seconds 104 msec
