                         Program Version 4.2.0 -  RELEASE  -
|  1> # Test redundant internal optimization
|  2> #
|  3> ! RKS B3LYP  Opt TightSCF SmallPrint
|  4>
|  5> %basis
|  6>         Basis "6-31G"
|  7> end
|  8>
|  9> %geom
| 10> Constraints
| 11> { D 4  0  15  12  135.0   C } # D for Dihedral angle
| 12> { D 0  15  12  16  120.0   C } # D for Dihedral angle
| 13> { D 0  4  3  2   C } # D for Dihedral angle
| 14> { D 4  3  2  1   C } # D for Dihedral angle
| 15> { D 3  2  1  0   C } # D for Dihedral angle
| 16> { D 2  1  0  4   C } # D for Dihedral angle
| 17> { D 1  0  4  3   C } # D for Dihedral angle
| 18> { D 16  20  19  18   C } # D for Dihedral angle
| 19> { D 20  19  18  17   C } # D for Dihedral angle
| 20> { D 19  18  17  16   C } # D for Dihedral angle
| 21> { D 18  17  16  20   C } # D for Dihedral angle
| 22> { D 17  16  20  19   C } # D for Dihedral angle
| 23> { D 15  12  16  20   C } # D for Dihedral angle
| 24> end
| 25> end
| 26>
| 27>
| 28> #%pal
| 29> #nprocs 8
| 30> #end
| 31>
| 32> * xyz 0 1
| 33> C  -21.048   26.222   46.251
| 34> C  -20.361   27.558   45.944
| 35> C  -20.329   28.222   47.341
| 36> C  -20.110   27.022   48.296
| 37> O  -20.473   25.807   47.535
| 38> H  -20.833   25.428   45.533
| 39> H  -19.344   27.382   45.576
| 40> H  -20.898   28.157   45.201
| 41> H  -19.543   28.978   47.434
| 42> H  -21.289   28.710   47.548
| 43> H  -20.733   27.082   49.195
| 44> H  -19.064   26.913   48.597
| 45> C  -23.162   27.680   45.721
| 46> H  -23.653   28.289   46.490
| 47> H  -22.356   28.277   45.273
| 48> O  -22.586   26.394   46.375
| 49> C  -24.198   27.373   44.604
| 50> C  -23.607   26.448   43.534
| 51> C  -23.711   25.066   44.224
| 52> C  -25.026   25.175   45.035
| 53> O  -25.331   26.618   45.150
| 54> H  -24.597   28.313   44.218
| 55> O  -24.484   26.487   42.253
| 56> H  -22.580   26.708   43.259
| 57> H  -23.728   24.235   43.510
| 58> H  -22.856   24.914   44.893
| 59> H  -24.937   24.745   46.039
| 60> H  -25.872   24.707   44.524
| 61> H  -25.518   26.228   42.505
| 62> *
| 63>
| 64>                          ****END OF INPUT****
 Total Charge           Charge          ....    0
 Multiplicity           Mult            ....    1
 Number of Electrons    NEL             ....  102
FINAL SINGLE POINT ENERGY      -652.816888704418
FINAL SINGLE POINT ENERGY      -652.841347083734
FINAL SINGLE POINT ENERGY      -652.850454280415
FINAL SINGLE POINT ENERGY      -652.852238323554
FINAL SINGLE POINT ENERGY      -652.852573076320
FINAL SINGLE POINT ENERGY      -652.852626173762
                    ***********************HURRAY********************

CARTESIAN COORDINATES (ANGSTROEM)
---------------------------------
  C    -21.096639   26.303276   46.319075
  C    -20.211485   27.501803   45.972564
  C    -20.175665   28.277421   47.316008
  C    -20.191803   27.140247   48.361562
  O    -20.676565   25.936553   47.643644
  H    -20.935709   25.421295   45.694957
  H    -19.214974   27.119602   45.724816
  H    -20.548368   28.104962   45.126495
  H    -19.289592   28.912910   47.404939
  H    -21.060996   28.914830   47.414898
  H    -20.859550   27.339766   49.203456
  H    -19.194064   26.900128   48.739806
  C    -23.193935   27.683427   45.733583
  H    -23.725647   28.216432   46.529802
  H    -22.480447   28.376640   45.272325
  O    -22.537848   26.546519   46.359951
  C    -24.225318   27.271496   44.679896
  C    -23.718008   26.451516   43.484975
  C    -23.738749   25.008331   44.058510
  C    -24.979128   25.023284   44.986716
  O    -25.289207   26.447497   45.250159
  H    -24.701176   28.193653   44.322758
  O    -24.608141   26.602389   42.343487
  H    -22.736747   26.760168   43.120798
  H    -23.816084   24.273974   43.251909
  H    -22.833541   24.818778   44.635984
  H    -24.788958   24.525620   45.940532
  H    -25.865187   24.581393   44.518842
  H    -25.533469   26.484091   42.645555

 Multiplicity           Mult            ....    1
 Number of Electrons    NEL             ....  102
 Basis Dimension        Dim             ....  149

ORBITAL ENERGIES
----------------

  NO   OCC          E(Eh)            E(eV)
   0   2.0000     -19.143391      -520.9181
   1   2.0000     -19.142843      -520.9033
   2   2.0000     -19.136842      -520.7399
   3   2.0000     -19.136122      -520.7203
   4   2.0000     -10.287445      -279.9356
   5   2.0000     -10.239630      -278.6345
   6   2.0000     -10.236239      -278.5422
   7   2.0000     -10.233336      -278.4632
   8   2.0000     -10.230289      -278.3803
   9   2.0000     -10.221073      -278.1295
  10   2.0000     -10.199963      -277.5551
  11   2.0000     -10.197450      -277.4867
  12   2.0000     -10.179513      -276.9986
  13   2.0000      -1.055062       -28.7097
  14   2.0000      -1.033203       -28.1149
  15   2.0000      -1.004355       -27.3299
  16   2.0000      -0.993321       -27.0296
  17   2.0000      -0.795591       -21.6491
  18   2.0000      -0.778865       -21.1940
  19   2.0000      -0.767126       -20.8746
  20   2.0000      -0.738267       -20.0893
  21   2.0000      -0.680573       -18.5193
  22   2.0000      -0.610602       -16.6153
  23   2.0000      -0.603205       -16.4141
  24   2.0000      -0.598304       -16.2807
  25   2.0000      -0.569429       -15.4950
  26   2.0000      -0.525822       -14.3083
  27   2.0000      -0.513604       -13.9759
  28   2.0000      -0.509658       -13.8685
  29   2.0000      -0.489327       -13.3153
  30   2.0000      -0.473662       -12.8890
  31   2.0000      -0.457936       -12.4611
  32   2.0000      -0.451526       -12.2867
  33   2.0000      -0.437154       -11.8956
  34   2.0000      -0.426813       -11.6142
  35   2.0000      -0.421128       -11.4595
  36   2.0000      -0.403391       -10.9768
  37   2.0000      -0.389022       -10.5858
  38   2.0000      -0.385446       -10.4885
  39   2.0000      -0.367164        -9.9911
  40   2.0000      -0.365831        -9.9548
  41   2.0000      -0.363756        -9.8983
  42   2.0000      -0.354361        -9.6427
  43   2.0000      -0.327636        -8.9154
  44   2.0000      -0.319003        -8.6805
  45   2.0000      -0.303124        -8.2484
  46   2.0000      -0.297824        -8.1042
  47   2.0000      -0.272167        -7.4060
  48   2.0000      -0.266344        -7.2476
  49   2.0000      -0.259099        -7.0504
  50   2.0000      -0.235557        -6.4098
  51   0.0000       0.063531         1.7288
  52   0.0000       0.074457         2.0261
  53   0.0000       0.090807         2.4710
  54   0.0000       0.095430         2.5968
  55   0.0000       0.106088         2.8868

MULLIKEN ATOMIC CHARGES
-----------------------
   0 C :    0.318820
   1 C :   -0.306710
   2 C :   -0.302477
   3 C :   -0.001741
   4 O :   -0.494391
   5 H :    0.149060
   6 H :    0.158854
   7 H :    0.146142
   8 H :    0.147610
   9 H :    0.155053
  10 H :    0.154493
  11 H :    0.145407
  12 C :   -0.006253
  13 H :    0.160944
  14 H :    0.121194
  15 O :   -0.529263
  16 C :    0.075883
  17 C :    0.073966
  18 C :   -0.286862
  19 C :   -0.019551
  20 O :   -0.523423
  21 H :    0.149512
  22 O :   -0.602736
  23 H :    0.139143
  24 H :    0.151770
  25 H :    0.162788
  26 H :    0.164355
  27 H :    0.134433
  28 H :    0.363983
Sum of atomic charges:    0.0000000

LOEWDIN ATOMIC CHARGES
----------------------
   0 C :    0.182222
   1 C :   -0.233987
   2 C :   -0.218176
   3 C :   -0.027154
   4 O :   -0.307142
   5 H :    0.098399
   6 H :    0.123532
   7 H :    0.113593
   8 H :    0.117202
   9 H :    0.112933
  10 H :    0.109352
  11 H :    0.104454
  12 C :   -0.039101
  13 H :    0.114446
  14 H :    0.095079
  15 O :   -0.334310
  16 C :    0.008055
  17 C :    0.037101
  18 C :   -0.238935
  19 C :   -0.032425
  20 O :   -0.328109
  21 H :    0.113640
  22 O :   -0.416541
  23 H :    0.109465
  24 H :    0.119926
  25 H :    0.123362
  26 H :    0.114536
  27 H :    0.095798
  28 H :    0.282785

  Mayer bond orders larger than 0.100000
B(  0-C ,  1-C ) :   0.9339 B(  0-C ,  4-O ) :   0.9268 B(  0-C ,  5-H ) :   0.9201
B(  0-C , 15-O ) :   0.8493 B(  1-C ,  2-C ) :   0.9496 B(  1-C ,  6-H ) :   0.9323
B(  1-C ,  7-H ) :   0.9257 B(  2-C ,  3-C ) :   0.9518 B(  2-C ,  8-H ) :   0.9453
B(  2-C ,  9-H ) :   0.9440 B(  3-C ,  4-O ) :   0.8394 B(  3-C , 10-H ) :   0.9339
B(  3-C , 11-H ) :   0.9394 B( 12-C , 13-H ) :   0.9258 B( 12-C , 14-H ) :   0.8994
B( 12-C , 15-O ) :   0.8586 B( 12-C , 16-C ) :   0.8908 B( 16-C , 17-C ) :   0.9090
B( 16-C , 20-O ) :   0.8754 B( 16-C , 21-H ) :   0.9183 B( 17-C , 18-C ) :   0.9230
B( 17-C , 22-O ) :   0.8917 B( 17-C , 23-H ) :   0.9374 B( 18-C , 19-C ) :   0.9453
B( 18-C , 24-H ) :   0.9367 B( 18-C , 25-H ) :   0.9196 B( 19-C , 20-O ) :   0.8366
B( 19-C , 26-H ) :   0.9318 B( 19-C , 27-H ) :   0.9373 B( 22-O , 28-H ) :   0.7952

FINAL SINGLE POINT ENERGY      -652.852629599484

DIPOLE MOMENT
-------------
                                X             Y             Z
Electronic contribution:     -4.09830      -2.00126      -0.50932
Nuclear contribution   :      5.07911       2.75295       0.47850
                        -----------------------------------------
Total Dipole Moment    :      0.98080       0.75169      -0.03081
                        -----------------------------------------
Magnitude (a.u.)       :      1.23611
Magnitude (Debye)      :      3.14194

Rotational constants in cm-1:     0.058592     0.013715     0.013180
Rotational constants in MHz :  1756.550128   411.176379   395.123863

                             ****ORCA TERMINATED NORMALLY****
TOTAL RUN TIME: 0 days 1 hours 8 minutes 55 seconds 443 msec
