                         Program Version 4.2.0 -  RELEASE  -
|  1> # Test redundant internal optimization
|  2> #
|  3> ! RKS B3LYP  Opt TightSCF SmallPrint
|  4>
|  5> %basis
|  6>         Basis "6-31G"
|  7> end
|  8>
|  9> %geom
| 10> Constraints
| 11> { D 4  0  15  12  270.0   C } # D for Dihedral angle
| 12> { D 0  15  12  16  255.0   C } # D for Dihedral angle
| 13> { D 0  4  3  2   C } # D for Dihedral angle
| 14> { D 4  3  2  1   C } # D for Dihedral angle
| 15> { D 3  2  1  0   C } # D for Dihedral angle
| 16> { D 2  1  0  4   C } # D for Dihedral angle
| 17> { D 1  0  4  3   C } # D for Dihedral angle
| 18> { D 16  20  19  18   C } # D for Dihedral angle
| 19> { D 20  19  18  17   C } # D for Dihedral angle
| 20> { D 19  18  17  16   C } # D for Dihedral angle
| 21> { D 18  17  16  20   C } # D for Dihedral angle
| 22> { D 17  16  20  19   C } # D for Dihedral angle
| 23> { D 15  12  16  20   C } # D for Dihedral angle
| 24> end
| 25> end
| 26>
| 27>
| 28> #%pal
| 29> #nprocs 8
| 30> #end
| 31>
| 32> * xyz 0 1
| 33> C  -21.048   26.222   46.251
| 34> C  -20.361   27.558   45.944
| 35> C  -20.329   28.222   47.341
| 36> C  -20.110   27.022   48.296
| 37> O  -20.473   25.807   47.535
| 38> H  -20.833   25.428   45.533
| 39> H  -19.344   27.382   45.576
| 40> H  -20.898   28.157   45.201
| 41> H  -19.543   28.978   47.434
| 42> H  -21.289   28.710   47.548
| 43> H  -20.733   27.082   49.195
| 44> H  -19.064   26.913   48.597
| 45> C  -23.420   25.119   46.072
| 46> H  -22.760   24.242   46.089
| 47> H  -24.197   24.978   46.835
| 48> O  -22.586   26.394   46.375
| 49> C  -24.122   25.175   44.687
| 50> C  -24.996   26.428   44.556
| 51> C  -23.940   27.514   44.237
| 52> C  -22.902   26.753   43.374
| 53> O  -23.131   25.312   43.615
| 54> H  -24.651   24.236   44.516
| 55> O  -25.987   26.264   43.373
| 56> H  -25.571   26.649   45.462
| 57> H  -24.364   28.378   43.715
| 58> H  -23.480   27.876   45.165
| 59> H  -21.870   27.003   43.641
| 60> H  -23.043   26.927   42.303
| 61> H  -25.433   26.043   42.454
| 62> *
| 63>
| 64>                          ****END OF INPUT****
 Total Charge           Charge          ....    0
 Multiplicity           Mult            ....    1
 Number of Electrons    NEL             ....  102
FINAL SINGLE POINT ENERGY      -652.837436369637
FINAL SINGLE POINT ENERGY      -652.860851794083
FINAL SINGLE POINT ENERGY      -652.865019074359
FINAL SINGLE POINT ENERGY      -652.867198212695
FINAL SINGLE POINT ENERGY      -652.867369191736
FINAL SINGLE POINT ENERGY      -652.867391966739
FINAL SINGLE POINT ENERGY      -652.867392606543
                    ***********************HURRAY********************

CARTESIAN COORDINATES (ANGSTROEM)
---------------------------------
  C    -21.030126   26.174435   46.261489
  C    -20.377787   27.534191   46.008640
  C    -20.363723   28.151594   47.428724
  C    -20.117161   26.923619   48.333976
  O    -20.455181   25.737323   47.510990
  H    -20.826571   25.396962   45.522186
  H    -19.356977   27.379355   45.640349
  H    -20.927983   28.136179   45.283285
  H    -19.592227   28.918329   47.547751
  H    -21.337591   28.601138   47.644358
  H    -20.741974   26.920423   49.230612
  H    -19.067982   26.814615   48.624678
  C    -23.304371   25.231117   46.098848
  H    -22.698870   24.317545   46.133928
  H    -24.051122   25.172844   46.899674
  O    -22.460605   26.386483   46.383511
  C    -24.012959   25.302717   44.747631
  C    -24.978474   26.475189   44.516730
  C    -24.010022   27.591174   44.043694
  C    -22.948430   26.812716   43.228454
  O    -23.067362   25.389613   43.630214
  H    -24.554988   24.356752   44.621560
  O    -25.970476   26.136130   43.507756
  H    -25.553089   26.750089   45.401711
  H    -24.538829   28.341046   43.449096
  H    -23.556761   28.065391   44.916345
  H    -21.928827   27.154793   43.424533
  H    -23.129059   26.855114   42.148646
  H    -25.518472   25.745123   42.730631

 Multiplicity           Mult            ....    1
 Number of Electrons    NEL             ....  102
 Basis Dimension        Dim             ....  149

ORBITAL ENERGIES
----------------

  NO   OCC          E(Eh)            E(eV)
   0   2.0000     -19.147379      -521.0267
   1   2.0000     -19.145425      -520.9735
   2   2.0000     -19.138792      -520.7930
   3   2.0000     -19.136721      -520.7367
   4   2.0000     -10.278988      -279.7055
   5   2.0000     -10.239027      -278.6181
   6   2.0000     -10.234815      -278.5035
   7   2.0000     -10.232758      -278.4475
   8   2.0000     -10.230162      -278.3769
   9   2.0000     -10.225022      -278.2370
  10   2.0000     -10.187730      -277.2222
  11   2.0000     -10.186701      -277.1942
  12   2.0000     -10.181270      -277.0464
  13   2.0000      -1.054952       -28.7067
  14   2.0000      -1.035631       -28.1809
  15   2.0000      -1.006209       -27.3803
  16   2.0000      -0.994151       -27.0522
  17   2.0000      -0.790446       -21.5091
  18   2.0000      -0.777533       -21.1578
  19   2.0000      -0.767612       -20.8878
  20   2.0000      -0.731786       -19.9129
  21   2.0000      -0.676252       -18.4018
  22   2.0000      -0.601599       -16.3704
  23   2.0000      -0.601251       -16.3609
  24   2.0000      -0.597792       -16.2668
  25   2.0000      -0.578128       -15.7317
  26   2.0000      -0.525944       -14.3117
  27   2.0000      -0.507764       -13.8170
  28   2.0000      -0.498772       -13.5723
  29   2.0000      -0.488933       -13.3045
  30   2.0000      -0.470153       -12.7935
  31   2.0000      -0.461714       -12.5639
  32   2.0000      -0.450096       -12.2477
  33   2.0000      -0.437002       -11.8914
  34   2.0000      -0.427454       -11.6316
  35   2.0000      -0.412557       -11.2262
  36   2.0000      -0.398202       -10.8356
  37   2.0000      -0.393435       -10.7059
  38   2.0000      -0.378568       -10.3014
  39   2.0000      -0.365465        -9.9448
  40   2.0000      -0.360923        -9.8212
  41   2.0000      -0.356876        -9.7111
  42   2.0000      -0.348108        -9.4725
  43   2.0000      -0.333188        -9.0665
  44   2.0000      -0.323755        -8.8098
  45   2.0000      -0.307875        -8.3777
  46   2.0000      -0.302863        -8.2413
  47   2.0000      -0.278039        -7.5658
  48   2.0000      -0.266807        -7.2602
  49   2.0000      -0.255035        -6.9399
  50   2.0000      -0.241850        -6.5811
  51   0.0000       0.062775         1.7082
  52   0.0000       0.082770         2.2523
  53   0.0000       0.087307         2.3757
  54   0.0000       0.102267         2.7828
  55   0.0000       0.105700         2.8762

MULLIKEN ATOMIC CHARGES
-----------------------
   0 C :    0.281510
   1 C :   -0.266227
   2 C :   -0.301967
   3 C :    0.000161
   4 O :   -0.508542
   5 H :    0.163454
   6 H :    0.147656
   7 H :    0.150558
   8 H :    0.141714
   9 H :    0.161201
  10 H :    0.148717
  11 H :    0.141999
  12 C :   -0.020912
  13 H :    0.155550
  14 H :    0.148698
  15 O :   -0.522441
  16 C :    0.073902
  17 C :    0.080727
  18 C :   -0.290498
  19 C :   -0.032026
  20 O :   -0.531733
  21 H :    0.155530
  22 O :   -0.603596
  23 H :    0.154807
  24 H :    0.150949
  25 H :    0.172645
  26 H :    0.143004
  27 H :    0.142799
  28 H :    0.362361
Sum of atomic charges:   -0.0000000

LOEWDIN ATOMIC CHARGES
----------------------
   0 C :    0.171479
   1 C :   -0.217610
   2 C :   -0.216595
   3 C :   -0.026524
   4 O :   -0.324442
   5 H :    0.108202
   6 H :    0.115422
   7 H :    0.116995
   8 H :    0.113599
   9 H :    0.118265
  10 H :    0.106348
  11 H :    0.102452
  12 C :   -0.037768
  13 H :    0.112461
  14 H :    0.111721
  15 O :   -0.332453
  16 C :    0.006385
  17 C :    0.039406
  18 C :   -0.241567
  19 C :   -0.036903
  20 O :   -0.335135
  21 H :    0.115946
  22 O :   -0.416412
  23 H :    0.117661
  24 H :    0.120002
  25 H :    0.127537
  26 H :    0.100594
  27 H :    0.099155
  28 H :    0.281781

  Mayer bond orders larger than 0.100000
B(  0-C ,  1-C ) :   0.9468 B(  0-C ,  4-O ) :   0.9129 B(  0-C ,  5-H ) :   0.9132
B(  0-C , 15-O ) :   0.8412 B(  1-C ,  2-C ) :   0.9539 B(  1-C ,  6-H ) :   0.9397
B(  1-C ,  7-H ) :   0.9325 B(  2-C ,  3-C ) :   0.9548 B(  2-C ,  8-H ) :   0.9452
B(  2-C ,  9-H ) :   0.9444 B(  3-C ,  4-O ) :   0.8381 B(  3-C , 10-H ) :   0.9354
B(  3-C , 11-H ) :   0.9402 B( 12-C , 13-H ) :   0.9204 B( 12-C , 14-H ) :   0.9262
B( 12-C , 15-O ) :   0.8606 B( 12-C , 16-C ) :   0.8908 B( 16-C , 17-C ) :   0.9099
B( 16-C , 20-O ) :   0.8626 B( 16-C , 21-H ) :   0.9180 B( 17-C , 18-C ) :   0.9224
B( 17-C , 22-O ) :   0.8906 B( 17-C , 23-H ) :   0.9350 B( 18-C , 19-C ) :   0.9458
B( 18-C , 24-H ) :   0.9366 B( 18-C , 25-H ) :   0.9184 B( 19-C , 20-O ) :   0.8410
B( 19-C , 26-H ) :   0.9282 B( 19-C , 27-H ) :   0.9363 B( 22-O , 28-H ) :   0.7963

FINAL SINGLE POINT ENERGY      -652.867390772866

DIPOLE MOMENT
-------------
                                X             Y             Z
Electronic contribution:     -2.81798      -4.80110      -1.12660
Nuclear contribution   :      3.41413       5.56801       1.14721
                        -----------------------------------------
Total Dipole Moment    :      0.59615       0.76691       0.02061
                        -----------------------------------------
Magnitude (a.u.)       :      0.97158
Magnitude (Debye)      :      2.46956

Rotational constants in cm-1:     0.061050     0.014115     0.013393
Rotational constants in MHz :  1830.222913   423.163132   401.506141

                             ****ORCA TERMINATED NORMALLY****
TOTAL RUN TIME: 0 days 1 hours 37 minutes 33 seconds 245 msec
