                         Program Version 4.2.0 -  RELEASE  -
|  1> # Test redundant internal optimization
|  2> #
|  3> ! RKS B3LYP  Opt TightSCF SmallPrint
|  4>
|  5> %basis
|  6>         Basis "6-31G"
|  7> end
|  8>
|  9> %geom
| 10> Constraints
| 11> { D 4  0  15  12  195.0   C } # D for Dihedral angle
| 12> { D 0  15  12  16  195.0   C } # D for Dihedral angle
| 13> { D 0  4  3  2   C } # D for Dihedral angle
| 14> { D 4  3  2  1   C } # D for Dihedral angle
| 15> { D 3  2  1  0   C } # D for Dihedral angle
| 16> { D 2  1  0  4   C } # D for Dihedral angle
| 17> { D 1  0  4  3   C } # D for Dihedral angle
| 18> { D 16  20  19  18   C } # D for Dihedral angle
| 19> { D 20  19  18  17   C } # D for Dihedral angle
| 20> { D 19  18  17  16   C } # D for Dihedral angle
| 21> { D 18  17  16  20   C } # D for Dihedral angle
| 22> { D 17  16  20  19   C } # D for Dihedral angle
| 23> { D 15  12  16  20   C } # D for Dihedral angle
| 24> end
| 25> end
| 26>
| 27>
| 28> #%pal
| 29> #nprocs 8
| 30> #end
| 31>
| 32> * xyz 0 1
| 33> C  -21.048   26.222   46.251
| 34> C  -20.361   27.558   45.944
| 35> C  -20.329   28.222   47.341
| 36> C  -20.110   27.022   48.296
| 37> O  -20.473   25.807   47.535
| 38> H  -20.833   25.428   45.533
| 39> H  -19.344   27.382   45.576
| 40> H  -20.898   28.157   45.201
| 41> H  -19.543   28.978   47.434
| 42> H  -21.289   28.710   47.548
| 43> H  -20.733   27.082   49.195
| 44> H  -19.064   26.913   48.597
| 45> C  -23.353   26.472   45.026
| 46> H  -22.814   27.139   44.342
| 47> H  -23.414   25.480   44.561
| 48> O  -22.586   26.394   46.375
| 49> C  -24.802   27.008   45.190
| 50> C  -24.807   28.461   45.677
| 51> C  -24.505   29.231   44.370
| 52> C  -25.231   28.390   43.290
| 53> O  -25.478   27.061   43.889
| 54> H  -25.370   26.318   45.817
| 55> H  -25.799   28.725   46.061
| 56> O  -23.761   28.734   46.793
| 57> H  -24.856   30.268   44.397
| 58> H  -23.424   29.249   44.185
| 59> H  -24.633   28.268   42.381
| 60> H  -26.204   28.808   43.020
| 61> H  -22.760   28.476   46.430
| 62> *
| 63>
| 64>                          ****END OF INPUT****
 Total Charge           Charge          ....    0
 Multiplicity           Mult            ....    1
 Number of Electrons    NEL             ....  102
FINAL SINGLE POINT ENERGY      -652.824076302469
FINAL SINGLE POINT ENERGY      -652.849618601938
FINAL SINGLE POINT ENERGY      -652.856086606020
FINAL SINGLE POINT ENERGY      -652.859319892579
FINAL SINGLE POINT ENERGY      -652.861580454184
FINAL SINGLE POINT ENERGY      -652.863389600617
FINAL SINGLE POINT ENERGY      -652.864567731758
FINAL SINGLE POINT ENERGY      -652.865199049551
FINAL SINGLE POINT ENERGY      -652.865326464978
FINAL SINGLE POINT ENERGY      -652.865342060545
FINAL SINGLE POINT ENERGY      -652.865345608962
                    ***********************HURRAY********************

CARTESIAN COORDINATES (ANGSTROEM)
---------------------------------
  C    -21.105061   26.230230   46.210604
  C    -20.348425   27.512810   45.871060
  C    -20.356559   28.260078   47.228139
  C    -20.239793   27.114207   48.253031
  O    -20.626904   25.877893   47.510467
  H    -20.913374   25.382986   45.544760
  H    -19.328637   27.251979   45.567251
  H    -20.809118   28.094731   45.068043
  H    -19.528979   28.971289   47.310876
  H    -21.289828   28.817851   47.341728
  H    -20.906941   27.223933   49.111046
  H    -19.216795   26.954588   48.603576
  C    -23.250682   26.453244   44.995599
  H    -22.694066   27.071153   44.278826
  H    -23.327391   25.436847   44.592287
  O    -22.557922   26.426833   46.290497
  C    -24.653558   27.031104   45.215752
  C    -24.702613   28.483868   45.715330
  C    -24.462142   29.278212   44.400248
  C    -25.179028   28.420542   43.336277
  O    -25.360488   27.066374   43.937754
  H    -25.216427   26.358286   45.869211
  H    -25.714656   28.689436   46.085727
  O    -23.759293   28.808670   46.758974
  H    -24.855958   30.296244   44.458991
  H    -23.383402   29.345382   44.221580
  H    -24.610330   28.319045   42.406630
  H    -26.179618   28.791579   43.098835
  H    -23.244016   27.993605   46.971901

 Multiplicity           Mult            ....    1
 Number of Electrons    NEL             ....  102
 Basis Dimension        Dim             ....  149

ORBITAL ENERGIES
----------------

  NO   OCC          E(Eh)            E(eV)
   0   2.0000     -19.163787      -521.4732
   1   2.0000     -19.150724      -521.1177
   2   2.0000     -19.144220      -520.9407
   3   2.0000     -19.120972      -520.3081
   4   2.0000     -10.291793      -280.0539
   5   2.0000     -10.241378      -278.6821
   6   2.0000     -10.238685      -278.6088
   7   2.0000     -10.235839      -278.5313
   8   2.0000     -10.231696      -278.4186
   9   2.0000     -10.230871      -278.3962
  10   2.0000     -10.195952      -277.4459
  11   2.0000     -10.190457      -277.2964
  12   2.0000     -10.185032      -277.1488
  13   2.0000      -1.066071       -29.0093
  14   2.0000      -1.030185       -28.0327
  15   2.0000      -1.009972       -27.4827
  16   2.0000      -0.997940       -27.1553
  17   2.0000      -0.794299       -21.6140
  18   2.0000      -0.776912       -21.1409
  19   2.0000      -0.771785       -21.0013
  20   2.0000      -0.737896       -20.0792
  21   2.0000      -0.682592       -18.5743
  22   2.0000      -0.608606       -16.5610
  23   2.0000      -0.602850       -16.4044
  24   2.0000      -0.595460       -16.2033
  25   2.0000      -0.584153       -15.8956
  26   2.0000      -0.532065       -14.4782
  27   2.0000      -0.517822       -14.0907
  28   2.0000      -0.503661       -13.7053
  29   2.0000      -0.494889       -13.4666
  30   2.0000      -0.474270       -12.9056
  31   2.0000      -0.460392       -12.5279
  32   2.0000      -0.449842       -12.2408
  33   2.0000      -0.437620       -11.9083
  34   2.0000      -0.432102       -11.7581
  35   2.0000      -0.420136       -11.4325
  36   2.0000      -0.411131       -11.1875
  37   2.0000      -0.391785       -10.6610
  38   2.0000      -0.382797       -10.4164
  39   2.0000      -0.372869       -10.1463
  40   2.0000      -0.364189        -9.9101
  41   2.0000      -0.363268        -9.8850
  42   2.0000      -0.351666        -9.5693
  43   2.0000      -0.343260        -9.3406
  44   2.0000      -0.326515        -8.8849
  45   2.0000      -0.319421        -8.6919
  46   2.0000      -0.294472        -8.0130
  47   2.0000      -0.271671        -7.3925
  48   2.0000      -0.270642        -7.3646
  49   2.0000      -0.251791        -6.8516
  50   2.0000      -0.249068        -6.7775
  51   0.0000       0.053735         1.4622
  52   0.0000       0.065472         1.7816
  53   0.0000       0.092564         2.5188
  54   0.0000       0.094991         2.5848
  55   0.0000       0.105585         2.8731

MULLIKEN ATOMIC CHARGES
-----------------------
   0 C :    0.312396
   1 C :   -0.279457
   2 C :   -0.318866
   3 C :   -0.011765
   4 O :   -0.501188
   5 H :    0.148190
   6 H :    0.152687
   7 H :    0.149186
   8 H :    0.146952
   9 H :    0.179021
  10 H :    0.159903
  11 H :    0.148014
  12 C :   -0.015003
  13 H :    0.134749
  14 H :    0.161640
  15 O :   -0.543488
  16 C :    0.036903
  17 C :    0.122257
  18 C :   -0.300674
  19 C :   -0.021233
  20 O :   -0.518512
  21 H :    0.170331
  22 H :    0.145113
  23 O :   -0.649187
  24 H :    0.153276
  25 H :    0.143636
  26 H :    0.142328
  27 H :    0.151450
  28 H :    0.401341
Sum of atomic charges:   -0.0000000

LOEWDIN ATOMIC CHARGES
----------------------
   0 C :    0.181315
   1 C :   -0.229700
   2 C :   -0.223200
   3 C :   -0.026567
   4 O :   -0.300588
   5 H :    0.101983
   6 H :    0.118706
   7 H :    0.116090
   8 H :    0.117958
   9 H :    0.126370
  10 H :    0.111908
  11 H :    0.106061
  12 C :   -0.046288
  13 H :    0.094577
  14 H :    0.112302
  15 O :   -0.340033
  16 C :    0.017580
  17 C :    0.042678
  18 C :   -0.233865
  19 C :   -0.032285
  20 O :   -0.321505
  21 H :    0.119312
  22 H :    0.103192
  23 O :   -0.441256
  24 H :    0.122265
  25 H :    0.109551
  26 H :    0.101958
  27 H :    0.107423
  28 H :    0.284059

  Mayer bond orders larger than 0.100000
B(  0-C ,  1-C ) :   0.9318 B(  0-C ,  4-O ) :   0.9503 B(  0-C ,  5-H ) :   0.9217
B(  0-C , 15-O ) :   0.7888 B(  1-C ,  2-C ) :   0.9481 B(  1-C ,  6-H ) :   0.9331
B(  1-C ,  7-H ) :   0.9309 B(  2-C ,  3-C ) :   0.9518 B(  2-C ,  8-H ) :   0.9449
B(  2-C ,  9-H ) :   0.9250 B(  3-C ,  4-O ) :   0.8275 B(  3-C , 10-H ) :   0.9340
B(  3-C , 11-H ) :   0.9395 B( 12-C , 13-H ) :   0.9138 B( 12-C , 14-H ) :   0.9206
B( 12-C , 15-O ) :   0.7942 B( 12-C , 16-C ) :   0.9099 B( 15-O , 28-H ) :   0.1043
B( 16-C , 17-C ) :   0.9191 B( 16-C , 20-O ) :   0.8581 B( 16-C , 21-H ) :   0.9260
B( 17-C , 18-C ) :   0.9075 B( 17-C , 22-H ) :   0.9261 B( 17-C , 23-O ) :   0.9203
B( 18-C , 19-C ) :   0.9409 B( 18-C , 24-H ) :   0.9441 B( 18-C , 25-H ) :   0.9422
B( 19-C , 20-O ) :   0.8336 B( 19-C , 26-H ) :   0.9340 B( 19-C , 27-H ) :   0.9379
B( 23-O , 28-H ) :   0.7011

FINAL SINGLE POINT ENERGY      -652.865346463552

DIPOLE MOMENT
-------------
                                X             Y             Z
Electronic contribution:     -2.76002      -4.74281       1.88750
Nuclear contribution   :      3.60121       5.35610      -2.65185
                        -----------------------------------------
Total Dipole Moment    :      0.84119       0.61329      -0.76435
                        -----------------------------------------
Magnitude (a.u.)       :      1.29150
Magnitude (Debye)      :      3.28272

Rotational constants in cm-1:     0.056617     0.014831     0.013741
Rotational constants in MHz :  1697.327457   444.618114   411.949510

                             ****ORCA TERMINATED NORMALLY****
TOTAL RUN TIME: 0 days 0 hours 58 minutes 20 seconds 296 msec
