                         Program Version 4.2.1 -  RELEASE  -
|  1> # Test redundant internal optimization
|  2> #
|  3> ! RKS B3LYP  Opt TightSCF SmallPrint
|  4>
|  5> %basis
|  6>         Basis "6-31G"
|  7> end
|  8>
|  9> %geom
| 10> Constraints
| 11> { D 4  0  19  14  345.0   C } # D for Dihedral angle
| 12> { D 0  19  14  12  150.0   C } # D for Dihedral angle
| 13> { D 0  4  3  2   C } # D for Dihedral angle
| 14> { D 4  3  2  1   C } # D for Dihedral angle
| 15> { D 3  2  1  0   C } # D for Dihedral angle
| 16> { D 2  1  0  4   C } # D for Dihedral angle
| 17> { D 1  0  4  3   C } # D for Dihedral angle
| 18> { D 14  15  16  17   C } # D for Dihedral angle
| 19> { D 15  16  17  12   C } # D for Dihedral angle
| 20> { D 16  17  12  14   C } # D for Dihedral angle
| 21> { D 17  12  14  15   C } # D for Dihedral angle
| 22> { D 12  14  15  16   C } # D for Dihedral angle
| 23> end
| 24> end
| 25>
| 26>
| 27> #%pal
| 28> #nprocs 8
| 29> #end
| 30>
| 31> * xyz 0 1
| 32> C  -21.048   26.222   46.251
| 33> C  -20.361   27.558   45.944
| 34> C  -20.329   28.222   47.341
| 35> C  -20.110   27.022   48.296
| 36> O  -20.473   25.807   47.535
| 37> H  -20.833   25.428   45.533
| 38> H  -19.344   27.382   45.576
| 39> H  -20.898   28.157   45.201
| 40> H  -19.543   28.978   47.434
| 41> H  -21.289   28.710   47.548
| 42> H  -20.733   27.082   49.195
| 43> H  -19.064   26.913   48.597
| 44> C  -24.283   26.578   47.980
| 45> H  -24.566   26.341   49.018
| 46> C  -23.040   25.792   47.547
| 47> C  -23.641   24.403   47.229
| 48> C  -25.032   24.747   46.641
| 49> O  -25.330   26.137   47.051
| 50> H  -24.195   27.660   47.871
| 51> O  -22.472   26.381   46.366
| 52> H  -22.266   25.753   48.320
| 53> H  -23.026   23.822   46.535
| 54> H  -23.747   23.818   48.152
| 55> H  -25.822   24.086   47.013
| 56> H  -25.040   24.726   45.547
| 57> *
| 58>
| 59>                          ****END OF INPUT****
 Total Charge           Charge          ....    0
 Multiplicity           Mult            ....    1
 Number of Electrons    NEL             ....   86
FINAL SINGLE POINT ENERGY      -538.426637335735
FINAL SINGLE POINT ENERGY      -538.431144327968
FINAL SINGLE POINT ENERGY      -538.432389437791
FINAL SINGLE POINT ENERGY      -538.432649908989
FINAL SINGLE POINT ENERGY      -538.432670229175
FINAL SINGLE POINT ENERGY      -538.432677856197
                    ***********************HURRAY********************

CARTESIAN COORDINATES (ANGSTROEM)
---------------------------------
  C    -21.001284   26.215265   46.300646
  C    -20.425240   27.590391   45.961790
  C    -20.310103   28.236884   47.360942
  C    -19.939199   27.047330   48.272770
  O    -20.304641   25.821397   47.504788
  H    -20.791627   25.432471   45.566302
  H    -19.439118   27.465196   45.500037
  H    -21.073059   28.147030   45.281702
  H    -19.560854   29.033696   47.396245
  H    -21.275361   28.663360   47.650926
  H    -20.481101   27.043385   49.222705
  H    -18.866004   26.977802   48.470858
  C    -24.337223   26.578515   47.931370
  H    -24.695058   26.371675   48.951644
  C    -23.096060   25.742632   47.618711
  C    -23.718273   24.374021   47.280980
  C    -25.042156   24.747897   46.574355
  O    -25.319650   26.156764   46.932274
  H    -24.174385   27.649870   47.802173
  O    -22.446353   26.327832   46.449183
  H    -22.386555   25.680413   48.446876
  H    -23.054104   23.772669   46.654330
  H    -23.906790   23.818774   48.208101
  H    -25.882658   24.122937   46.896486
  H    -24.958146   24.706792   45.484807

 Multiplicity           Mult            ....    1
 Number of Electrons    NEL             ....   86
 Basis Dimension        Dim             ....  127

ORBITAL ENERGIES
----------------

  NO   OCC          E(Eh)            E(eV)
   0   2.0000     -19.152422      -521.1639
   1   2.0000     -19.136442      -520.7291
   2   2.0000     -19.122172      -520.3408
   3   2.0000     -10.280237      -279.7395
   4   2.0000     -10.234306      -278.4896
   5   2.0000     -10.233712      -278.4735
   6   2.0000     -10.217703      -278.0378
   7   2.0000     -10.215050      -277.9656
   8   2.0000     -10.191407      -277.3223
   9   2.0000     -10.186519      -277.1893
  10   2.0000     -10.179544      -276.9995
  11   2.0000      -1.056038       -28.7363
  12   2.0000      -1.010615       -27.5002
  13   2.0000      -0.986593       -26.8466
  14   2.0000      -0.794195       -21.6111
  15   2.0000      -0.776017       -21.1165
  16   2.0000      -0.740022       -20.1370
  17   2.0000      -0.720035       -19.5931
  18   2.0000      -0.613498       -16.6941
  19   2.0000      -0.601870       -16.3777
  20   2.0000      -0.593307       -16.1447
  21   2.0000      -0.563260       -15.3271
  22   2.0000      -0.525378       -14.2963
  23   2.0000      -0.500480       -13.6188
  24   2.0000      -0.488289       -13.2870
  25   2.0000      -0.479884       -13.0583
  26   2.0000      -0.453023       -12.3274
  27   2.0000      -0.435606       -11.8534
  28   2.0000      -0.427124       -11.6226
  29   2.0000      -0.413522       -11.2525
  30   2.0000      -0.410203       -11.1622
  31   2.0000      -0.380913       -10.3652
  32   2.0000      -0.370956       -10.0942
  33   2.0000      -0.362972        -9.8770
  34   2.0000      -0.361518        -9.8374
  35   2.0000      -0.356455        -9.6996
  36   2.0000      -0.345003        -9.3880
  37   2.0000      -0.333189        -9.0665
  38   2.0000      -0.304528        -8.2866
  39   2.0000      -0.292237        -7.9522
  40   2.0000      -0.267501        -7.2791
  41   2.0000      -0.252717        -6.8768
  42   2.0000      -0.226817        -6.1720
  43   0.0000       0.072889         1.9834
  44   0.0000       0.097288         2.6473
  45   0.0000       0.101052         2.7498
  46   0.0000       0.103995         2.8298
  47   0.0000       0.110883         3.0173

MULLIKEN ATOMIC CHARGES
-----------------------
   0 C :    0.302206
   1 C :   -0.258153
   2 C :   -0.304365
   3 C :   -0.018244
   4 O :   -0.514045
   5 H :    0.150684
   6 H :    0.143802
   7 H :    0.165689
   8 H :    0.147350
   9 H :    0.157218
  10 H :    0.143043
  11 H :    0.152010
  12 C :    0.007767
  13 H :    0.119101
  14 C :    0.058989
  15 C :   -0.296026
  16 C :    0.002308
  17 O :   -0.520465
  18 H :    0.157573
  19 O :   -0.531110
  20 H :    0.153959
  21 H :    0.155227
  22 H :    0.140051
  23 H :    0.132548
  24 H :    0.152884
Sum of atomic charges:   -0.0000000

LOEWDIN ATOMIC CHARGES
----------------------
   0 C :    0.182261
   1 C :   -0.217384
   2 C :   -0.218365
   3 C :   -0.032509
   4 O :   -0.322407
   5 H :    0.099555
   6 H :    0.113408
   7 H :    0.128519
   8 H :    0.117291
   9 H :    0.115704
  10 H :    0.101371
  11 H :    0.107566
  12 C :   -0.037291
  13 H :    0.088878
  14 C :    0.035195
  15 C :   -0.234024
  16 C :   -0.029285
  17 O :   -0.330913
  18 H :    0.116993
  19 O :   -0.333860
  20 H :    0.110394
  21 H :    0.122739
  22 H :    0.111645
  23 H :    0.096989
  24 H :    0.107528

  Mayer bond orders larger than 0.100000
B(  0-C ,  1-C ) :   0.9381 B(  0-C ,  4-O ) :   0.9027 B(  0-C ,  5-H ) :   0.9260
B(  0-C , 19-O ) :   0.8485 B(  1-C ,  2-C ) :   0.9537 B(  1-C ,  6-H ) :   0.9361
B(  1-C ,  7-H ) :   0.9347 B(  2-C ,  3-C ) :   0.9538 B(  2-C ,  8-H ) :   0.9445
B(  2-C ,  9-H ) :   0.9443 B(  3-C ,  4-O ) :   0.8297 B(  3-C , 10-H ) :   0.9333
B(  3-C , 11-H ) :   0.9407 B( 12-C , 13-H ) :   0.9154 B( 12-C , 14-C ) :   0.9330
B( 12-C , 17-O ) :   0.8728 B( 12-C , 18-H ) :   0.9312 B( 14-C , 15-C ) :   0.9359
B( 14-C , 19-O ) :   0.8257 B( 14-C , 20-H ) :   0.9085 B( 15-C , 16-C ) :   0.9478
B( 15-C , 21-H ) :   0.9417 B( 15-C , 22-H ) :   0.9381 B( 16-C , 17-O ) :   0.8565
B( 16-C , 23-H ) :   0.9336 B( 16-C , 24-H ) :   0.9363

FINAL SINGLE POINT ENERGY      -538.432678415146

DIPOLE MOMENT
-------------
                                X             Y             Z
Electronic contribution:     -1.44194      -1.11772      -1.34378
Nuclear contribution   :      2.42603       1.23595       1.86566
                        -----------------------------------------
Total Dipole Moment    :      0.98409       0.11822       0.52188
                        -----------------------------------------
Magnitude (a.u.)       :      1.12016
Magnitude (Debye)      :      2.84723

Rotational constants in cm-1:     0.081811     0.021145     0.020496
Rotational constants in MHz :  2452.632960   633.914807   614.463028

                             ****ORCA TERMINATED NORMALLY****
TOTAL RUN TIME: 0 days 0 hours 15 minutes 50 seconds 95 msec
