                         Program Version 4.2.0 -  RELEASE  -
|  1> # Test redundant internal optimization
|  2> #
|  3> ! RKS B3LYP  Opt TightSCF SmallPrint
|  4>
|  5> %basis
|  6>         Basis "6-31G"
|  7> end
|  8>
|  9> %geom
| 10> Constraints
| 11> { D 4  0  15  12  195.0   C } # D for Dihedral angle
| 12> { D 0  15  12  16  330.0   C } # D for Dihedral angle
| 13> { D 0  4  3  2   C } # D for Dihedral angle
| 14> { D 4  3  2  1   C } # D for Dihedral angle
| 15> { D 3  2  1  0   C } # D for Dihedral angle
| 16> { D 2  1  0  4   C } # D for Dihedral angle
| 17> { D 1  0  4  3   C } # D for Dihedral angle
| 18> { D 16  20  19  18   C } # D for Dihedral angle
| 19> { D 20  19  18  17   C } # D for Dihedral angle
| 20> { D 19  18  17  16   C } # D for Dihedral angle
| 21> { D 18  17  16  20   C } # D for Dihedral angle
| 22> { D 17  16  20  19   C } # D for Dihedral angle
| 23> { D 15  12  16  20   C } # D for Dihedral angle
| 24> end
| 25> end
| 26>
| 27>
| 28> #%pal
| 29> #nprocs 8
| 30> #end
| 31>
| 32> * xyz 0 1
| 33> C  -21.048   26.222   46.251
| 34> C  -20.361   27.558   45.944
| 35> C  -20.329   28.222   47.341
| 36> C  -20.110   27.022   48.296
| 37> O  -20.473   25.807   47.535
| 38> H  -20.833   25.428   45.533
| 39> H  -19.344   27.382   45.576
| 40> H  -20.898   28.157   45.201
| 41> H  -19.543   28.978   47.434
| 42> H  -21.289   28.710   47.548
| 43> H  -20.733   27.082   49.195
| 44> H  -19.064   26.913   48.597
| 45> C  -23.353   26.472   45.026
| 46> H  -23.654   25.462   44.722
| 47> H  -24.259   27.082   45.134
| 48> O  -22.586   26.394   46.375
| 49> C  -22.499   27.092   43.885
| 50> C  -21.293   26.207   43.549
| 51> C  -21.944   25.109   42.675
| 52> C  -23.041   25.881   41.900
| 53> O  -23.270   27.141   42.638
| 54> H  -22.247   28.121   44.146
| 55> O  -20.252   27.017   42.729
| 56> H  -20.794   25.804   44.437
| 57> H  -21.228   24.619   42.008
| 58> H  -22.390   24.337   43.313
| 59> H  -23.983   25.324   41.841
| 60> H  -22.726   26.151   40.889
| 61> H  -20.730   27.430   41.833
| 62> *
| 63>
| 64>                          ****END OF INPUT****
 Total Charge           Charge          ....    0
 Multiplicity           Mult            ....    1
 Number of Electrons    NEL             ....  102
FINAL SINGLE POINT ENERGY      -652.784742176050
FINAL SINGLE POINT ENERGY      -652.827133612023
FINAL SINGLE POINT ENERGY      -652.846137025815
FINAL SINGLE POINT ENERGY      -652.849034729457
FINAL SINGLE POINT ENERGY      -652.849503863857
FINAL SINGLE POINT ENERGY      -652.849597178731
FINAL SINGLE POINT ENERGY      -652.849601964791
FINAL SINGLE POINT ENERGY      -652.849603319288
                    ***********************HURRAY********************

CARTESIAN COORDINATES (ANGSTROEM)
---------------------------------
  C    -20.903310   26.224575   46.379675
  C    -20.090108   27.503595   46.184430
  C    -20.323076   28.241561   47.526901
  C    -20.390000   27.083692   48.544508
  O    -20.652842   25.859353   47.745226
  H    -20.597640   25.366642   45.772817
  H    -19.032016   27.239493   46.065002
  H    -20.391568   28.094150   45.317004
  H    -19.526278   28.955401   47.755089
  H    -21.274987   28.778932   47.492187
  H    -21.192402   27.199663   49.277429
  H    -19.441936   26.918344   49.065670
  C    -23.070103   26.544623   45.017159
  H    -23.477477   25.546363   44.798621
  H    -23.915506   27.200769   45.234488
  O    -22.332936   26.457617   46.274806
  C    -22.407358   27.065887   43.723589
  C    -21.238748   26.266951   43.120076
  C    -21.981772   25.080372   42.440960
  C    -23.293694   25.738116   41.941262
  O    -23.450739   27.003202   42.693998
  H    -22.131890   28.119819   43.825902
  O    -20.520371   27.084506   42.155068
  H    -20.482374   25.945293   43.828989
  H    -21.378979   24.660494   41.632182
  H    -22.182940   24.290540   43.172006
  H    -24.174711   25.112241   42.111272
  H    -23.252252   25.999788   40.879027
  H    -21.165986   27.542017   41.575656

 Multiplicity           Mult            ....    1
 Number of Electrons    NEL             ....  102
 Basis Dimension        Dim             ....  149

ORBITAL ENERGIES
----------------

  NO   OCC          E(Eh)            E(eV)
   0   2.0000     -19.154354      -521.2165
   1   2.0000     -19.147138      -521.0201
   2   2.0000     -19.138988      -520.7983
   3   2.0000     -19.137751      -520.7647
   4   2.0000     -10.282340      -279.7967
   5   2.0000     -10.250270      -278.9240
   6   2.0000     -10.244536      -278.7680
   7   2.0000     -10.239621      -278.6343
   8   2.0000     -10.234017      -278.4818
   9   2.0000     -10.223500      -278.1956
  10   2.0000     -10.197239      -277.4810
  11   2.0000     -10.186433      -277.1869
  12   2.0000     -10.185611      -277.1646
  13   2.0000      -1.052063       -28.6281
  14   2.0000      -1.046501       -28.4767
  15   2.0000      -1.015719       -27.6391
  16   2.0000      -0.989636       -26.9294
  17   2.0000      -0.786955       -21.4141
  18   2.0000      -0.785604       -21.3774
  19   2.0000      -0.772804       -21.0291
  20   2.0000      -0.738745       -20.1023
  21   2.0000      -0.680014       -18.5041
  22   2.0000      -0.613828       -16.7031
  23   2.0000      -0.606606       -16.5066
  24   2.0000      -0.597822       -16.2676
  25   2.0000      -0.581336       -15.8190
  26   2.0000      -0.530634       -14.4393
  27   2.0000      -0.516551       -14.0561
  28   2.0000      -0.503927       -13.7125
  29   2.0000      -0.483714       -13.1625
  30   2.0000      -0.480843       -13.0844
  31   2.0000      -0.462369       -12.5817
  32   2.0000      -0.447401       -12.1744
  33   2.0000      -0.441621       -12.0171
  34   2.0000      -0.429258       -11.6807
  35   2.0000      -0.420509       -11.4426
  36   2.0000      -0.402316       -10.9476
  37   2.0000      -0.401989       -10.9387
  38   2.0000      -0.380351       -10.3499
  39   2.0000      -0.378013       -10.2863
  40   2.0000      -0.363658        -9.8956
  41   2.0000      -0.356992        -9.7143
  42   2.0000      -0.353097        -9.6082
  43   2.0000      -0.339891        -9.2489
  44   2.0000      -0.317677        -8.6444
  45   2.0000      -0.313346        -8.5266
  46   2.0000      -0.302794        -8.2394
  47   2.0000      -0.280119        -7.6224
  48   2.0000      -0.261112        -7.1052
  49   2.0000      -0.255703        -6.9580
  50   2.0000      -0.244407        -6.6507
  51   0.0000       0.057673         1.5694
  52   0.0000       0.068982         1.8771
  53   0.0000       0.079757         2.1703
  54   0.0000       0.093840         2.5535
  55   0.0000       0.094779         2.5791

MULLIKEN ATOMIC CHARGES
-----------------------
   0 C :    0.298159
   1 C :   -0.276076
   2 C :   -0.300039
   3 C :   -0.001785
   4 O :   -0.503902
   5 H :    0.138109
   6 H :    0.148449
   7 H :    0.153771
   8 H :    0.142903
   9 H :    0.160305
  10 H :    0.154630
  11 H :    0.142489
  12 C :    0.008304
  13 H :    0.129995
  14 H :    0.171530
  15 O :   -0.522816
  16 C :    0.024906
  17 C :    0.080785
  18 C :   -0.300953
  19 C :   -0.031790
  20 O :   -0.524184
  21 H :    0.162502
  22 O :   -0.603401
  23 H :    0.159551
  24 H :    0.166173
  25 H :    0.153535
  26 H :    0.152995
  27 H :    0.149947
  28 H :    0.365907
Sum of atomic charges:   -0.0000000

LOEWDIN ATOMIC CHARGES
----------------------
   0 C :    0.179627
   1 C :   -0.232143
   2 C :   -0.215960
   3 C :   -0.025162
   4 O :   -0.303194
   5 H :    0.091771
   6 H :    0.116397
   7 H :    0.116968
   8 H :    0.114920
   9 H :    0.117975
  10 H :    0.109488
  11 H :    0.102358
  12 C :   -0.039728
  13 H :    0.095426
  14 H :    0.124726
  15 O :   -0.339099
  16 C :    0.000792
  17 C :    0.030359
  18 C :   -0.241111
  19 C :   -0.038748
  20 O :   -0.323897
  21 H :    0.112225
  22 O :   -0.413185
  23 H :    0.117563
  24 H :    0.128566
  25 H :    0.117783
  26 H :    0.107402
  27 H :    0.104016
  28 H :    0.283864

  Mayer bond orders larger than 0.100000
B(  0-C ,  1-C ) :   0.9244 B(  0-C ,  4-O ) :   0.9303 B(  0-C ,  5-H ) :   0.9119
B(  0-C , 15-O ) :   0.8315 B(  1-C ,  2-C ) :   0.9498 B(  1-C ,  6-H ) :   0.9322
B(  1-C ,  7-H ) :   0.9278 B(  2-C ,  3-C ) :   0.9545 B(  2-C ,  8-H ) :   0.9445
B(  2-C ,  9-H ) :   0.9442 B(  3-C ,  4-O ) :   0.8342 B(  3-C , 10-H ) :   0.9349
B(  3-C , 11-H ) :   0.9394 B( 12-C , 13-H ) :   0.9231 B( 12-C , 14-H ) :   0.9280
B( 12-C , 15-O ) :   0.8496 B( 12-C , 16-C ) :   0.8808 B( 16-C , 17-C ) :   0.9028
B( 16-C , 20-O ) :   0.8239 B( 16-C , 21-H ) :   0.9200 B( 17-C , 18-C ) :   0.9142
B( 17-C , 22-O ) :   0.8866 B( 17-C , 23-H ) :   0.9173 B( 18-C , 19-C ) :   0.9420
B( 18-C , 24-H ) :   0.9365 B( 18-C , 25-H ) :   0.9323 B( 19-C , 20-O ) :   0.8365
B( 19-C , 26-H ) :   0.9346 B( 19-C , 27-H ) :   0.9370 B( 22-O , 28-H ) :   0.7936

FINAL SINGLE POINT ENERGY      -652.849603321362

DIPOLE MOMENT
-------------
                                X             Y             Z
Electronic contribution:     -1.60765      -0.66618      -0.26947
Nuclear contribution   :      1.72889       0.83279      -0.33488
                        -----------------------------------------
Total Dipole Moment    :      0.12124       0.16661      -0.60436
                        -----------------------------------------
Magnitude (a.u.)       :      0.63852
Magnitude (Debye)      :      1.62298

Rotational constants in cm-1:     0.056807     0.013947     0.013089
Rotational constants in MHz :  1703.029314   418.121320   392.402198

                             ****ORCA TERMINATED NORMALLY****
TOTAL RUN TIME: 0 days 0 hours 24 minutes 18 seconds 194 msec
