                         Program Version 4.2.1 -  RELEASE  -
|  1> # Test redundant internal optimization
|  2> #
|  3> ! RKS B3LYP  Opt TightSCF SmallPrint
|  4>
|  5> %basis
|  6>         Basis "6-31G"
|  7> end
|  8>
|  9> %geom
| 10> Constraints
| 11> { D 4  0  19  14  240.0   C } # D for Dihedral angle
| 12> { D 0  19  14  12  300.0   C } # D for Dihedral angle
| 13> { D 0  4  3  2   C } # D for Dihedral angle
| 14> { D 4  3  2  1   C } # D for Dihedral angle
| 15> { D 3  2  1  0   C } # D for Dihedral angle
| 16> { D 2  1  0  4   C } # D for Dihedral angle
| 17> { D 1  0  4  3   C } # D for Dihedral angle
| 18> { D 14  15  16  17   C } # D for Dihedral angle
| 19> { D 15  16  17  12   C } # D for Dihedral angle
| 20> { D 16  17  12  14   C } # D for Dihedral angle
| 21> { D 17  12  14  15   C } # D for Dihedral angle
| 22> { D 12  14  15  16   C } # D for Dihedral angle
| 23> end
| 24> end
| 25>
| 26>
| 27> #%pal
| 28> #nprocs 8
| 29> #end
| 30>
| 31> * xyz 0 1
| 32> C  -21.048   26.222   46.251
| 33> C  -20.361   27.558   45.944
| 34> C  -20.329   28.222   47.341
| 35> C  -20.110   27.022   48.296
| 36> O  -20.473   25.807   47.535
| 37> H  -20.833   25.428   45.533
| 38> H  -19.344   27.382   45.576
| 39> H  -20.898   28.157   45.201
| 40> H  -19.543   28.978   47.434
| 41> H  -21.289   28.710   47.548
| 42> H  -20.733   27.082   49.195
| 43> H  -19.064   26.913   48.597
| 44> C  -22.878   25.818   44.033
| 45> H  -23.634   25.405   43.347
| 46> C  -23.235   25.530   45.496
| 47> C  -22.790   24.057   45.644
| 48> C  -21.532   23.976   44.743
| 49> O  -21.588   25.146   43.838
| 50> H  -22.725   26.874   43.804
| 51> O  -22.472   26.381   46.366
| 52> H  -24.299   25.677   45.715
| 53> H  -22.578   23.779   46.681
| 54> H  -23.575   23.386   45.272
| 55> H  -21.502   23.060   44.143
| 56> H  -20.603   24.056   45.315
| 57> *
| 58>
| 59>                          ****END OF INPUT****
 Total Charge           Charge          ....    0
 Multiplicity           Mult            ....    1
 Number of Electrons    NEL             ....   86
FINAL SINGLE POINT ENERGY      -538.403390013210
FINAL SINGLE POINT ENERGY      -538.428638454641
FINAL SINGLE POINT ENERGY      -538.431229027820
FINAL SINGLE POINT ENERGY      -538.431678702381
FINAL SINGLE POINT ENERGY      -538.431754809839
FINAL SINGLE POINT ENERGY      -538.431780876354
FINAL SINGLE POINT ENERGY      -538.431779715077
                    ***********************HURRAY********************

CARTESIAN COORDINATES (ANGSTROEM)
---------------------------------
  C    -20.783241   26.302465   46.254639
  C    -20.266218   27.725903   46.044171
  C    -20.418084   28.334986   47.460134
  C    -20.103528   27.136804   48.383228
  O    -20.253206   25.925196   47.541038
  H    -20.441929   25.581067   45.516964
  H    -19.211621   27.689268   45.746203
  H    -20.830763   28.263356   45.279489
  H    -19.745990   29.181133   47.629973
  H    -21.448479   28.672287   47.605509
  H    -20.786244   27.059852   49.233513
  H    -19.071526   27.140711   48.747471
  C    -22.869977   25.719966   43.969746
  H    -23.774608   25.428416   43.417073
  C    -23.067371   25.511495   45.475623
  C    -22.854799   23.988991   45.607012
  C    -21.763765   23.680010   44.554082
  O    -21.744857   24.839535   43.619521
  H    -22.590604   26.740205   43.701103
  O    -22.239230   26.354476   46.321084
  H    -24.077949   25.794338   45.783952
  H    -22.558867   23.715440   46.623003
  H    -23.791501   23.474187   45.366836
  H    -21.976065   22.774632   43.975993
  H    -20.765576   23.591278   44.990640

 Multiplicity           Mult            ....    1
 Number of Electrons    NEL             ....   86
 Basis Dimension        Dim             ....  127

ORBITAL ENERGIES
----------------

  NO   OCC          E(Eh)            E(eV)
   0   2.0000     -19.138630      -520.7886
   1   2.0000     -19.136711      -520.7364
   2   2.0000     -19.132917      -520.6331
   3   2.0000     -10.270580      -279.4767
   4   2.0000     -10.241289      -278.6797
   5   2.0000     -10.226251      -278.2704
   6   2.0000     -10.226200      -278.2691
   7   2.0000     -10.219386      -278.0836
   8   2.0000     -10.187010      -277.2026
   9   2.0000     -10.179522      -276.9989
  10   2.0000     -10.178246      -276.9641
  11   2.0000      -1.046941       -28.4887
  12   2.0000      -1.017145       -27.6779
  13   2.0000      -0.986407       -26.8415
  14   2.0000      -0.788131       -21.4461
  15   2.0000      -0.773582       -21.0502
  16   2.0000      -0.744010       -20.2456
  17   2.0000      -0.719452       -19.5773
  18   2.0000      -0.615543       -16.7498
  19   2.0000      -0.603520       -16.4226
  20   2.0000      -0.591967       -16.1082
  21   2.0000      -0.566787       -15.4230
  22   2.0000      -0.521830       -14.1997
  23   2.0000      -0.502635       -13.6774
  24   2.0000      -0.478705       -13.0262
  25   2.0000      -0.475873       -12.9492
  26   2.0000      -0.450336       -12.2543
  27   2.0000      -0.444690       -12.1006
  28   2.0000      -0.424111       -11.5407
  29   2.0000      -0.413024       -11.2390
  30   2.0000      -0.403200       -10.9716
  31   2.0000      -0.394736       -10.7413
  32   2.0000      -0.373303       -10.1581
  33   2.0000      -0.367815       -10.0087
  34   2.0000      -0.354808        -9.6548
  35   2.0000      -0.350007        -9.5242
  36   2.0000      -0.342517        -9.3204
  37   2.0000      -0.317069        -8.6279
  38   2.0000      -0.310404        -8.4465
  39   2.0000      -0.292265        -7.9529
  40   2.0000      -0.264593        -7.2000
  41   2.0000      -0.247564        -6.7365
  42   2.0000      -0.236922        -6.4470
  43   0.0000       0.075094         2.0434
  44   0.0000       0.094798         2.5796
  45   0.0000       0.100900         2.7456
  46   0.0000       0.105980         2.8839
  47   0.0000       0.116833         3.1792

MULLIKEN ATOMIC CHARGES
-----------------------
   0 C :    0.266569
   1 C :   -0.250401
   2 C :   -0.297870
   3 C :   -0.000384
   4 O :   -0.509850
   5 H :    0.174762
   6 H :    0.142694
   7 H :    0.145156
   8 H :    0.137353
   9 H :    0.160511
  10 H :    0.148243
  11 H :    0.139017
  12 C :   -0.020305
  13 H :    0.133045
  14 C :    0.087247
  15 C :   -0.297445
  16 C :   -0.028862
  17 O :   -0.527218
  18 H :    0.158777
  19 O :   -0.524854
  20 H :    0.146086
  21 H :    0.173987
  22 H :    0.145717
  23 H :    0.142856
  24 H :    0.155169
Sum of atomic charges:   -0.0000000

LOEWDIN ATOMIC CHARGES
----------------------
   0 C :    0.169267
   1 C :   -0.216981
   2 C :   -0.216878
   3 C :   -0.026619
   4 O :   -0.320393
   5 H :    0.114417
   6 H :    0.112224
   7 H :    0.116515
   8 H :    0.112110
   9 H :    0.118447
  10 H :    0.105804
  11 H :    0.100681
  12 C :   -0.051922
  13 H :    0.097627
  14 C :    0.042634
  15 C :   -0.237483
  16 C :   -0.038895
  17 O :   -0.340896
  18 H :    0.115881
  19 O :   -0.326487
  20 H :    0.113209
  21 H :    0.132953
  22 H :    0.117392
  23 H :    0.102663
  24 H :    0.104733

  Mayer bond orders larger than 0.100000
B(  0-C ,  1-C ) :   0.9429 B(  0-C ,  4-O ) :   0.9172 B(  0-C ,  5-H ) :   0.8978
B(  0-C , 19-O ) :   0.8239 B(  1-C ,  2-C ) :   0.9563 B(  1-C ,  6-H ) :   0.9383
B(  1-C ,  7-H ) :   0.9390 B(  2-C ,  3-C ) :   0.9545 B(  2-C ,  8-H ) :   0.9458
B(  2-C ,  9-H ) :   0.9438 B(  3-C ,  4-O ) :   0.8388 B(  3-C , 10-H ) :   0.9354
B(  3-C , 11-H ) :   0.9401 B( 12-C , 13-H ) :   0.9146 B( 12-C , 14-C ) :   0.9137
B( 12-C , 17-O ) :   0.8541 B( 12-C , 18-H ) :   0.9329 B( 14-C , 15-C ) :   0.9237
B( 14-C , 19-O ) :   0.8867 B( 14-C , 20-H ) :   0.9380 B( 15-C , 16-C ) :   0.9439
B( 15-C , 21-H ) :   0.9339 B( 15-C , 22-H ) :   0.9379 B( 16-C , 17-O ) :   0.8428
B( 16-C , 23-H ) :   0.9371 B( 16-C , 24-H ) :   0.9306

FINAL SINGLE POINT ENERGY      -538.431779920571

DIPOLE MOMENT
-------------
                                X             Y             Z
Electronic contribution:     -0.16023      -1.46698      -0.54122
Nuclear contribution   :     -0.28046       1.70495       0.60818
                        -----------------------------------------
Total Dipole Moment    :     -0.44069       0.23797       0.06696
                        -----------------------------------------
Magnitude (a.u.)       :      0.50529
Magnitude (Debye)      :      1.28436

Rotational constants in cm-1:     0.078051     0.022754     0.021557
Rotational constants in MHz :  2339.920823   682.150450   646.267688

                             ****ORCA TERMINATED NORMALLY****
TOTAL RUN TIME: 0 days 0 hours 8 minutes 22 seconds 970 msec
