                         Program Version 4.2.0 -  RELEASE  -
|  1> # Test redundant internal optimization
|  2> #
|  3> ! RKS B3LYP  Opt TightSCF SmallPrint
|  4>
|  5> %basis
|  6>         Basis "6-31G"
|  7> end
|  8>
|  9> %geom
| 10> Constraints
| 11> { D 4  0  15  12  165.0   C } # D for Dihedral angle
| 12> { D 0  15  12  16  90.0   C } # D for Dihedral angle
| 13> { D 0  4  3  2   C } # D for Dihedral angle
| 14> { D 4  3  2  1   C } # D for Dihedral angle
| 15> { D 3  2  1  0   C } # D for Dihedral angle
| 16> { D 2  1  0  4   C } # D for Dihedral angle
| 17> { D 1  0  4  3   C } # D for Dihedral angle
| 18> { D 16  20  19  18   C } # D for Dihedral angle
| 19> { D 20  19  18  17   C } # D for Dihedral angle
| 20> { D 19  18  17  16   C } # D for Dihedral angle
| 21> { D 18  17  16  20   C } # D for Dihedral angle
| 22> { D 17  16  20  19   C } # D for Dihedral angle
| 23> { D 15  12  16  20   C } # D for Dihedral angle
| 24> end
| 25> end
| 26>
| 27>
| 28> #%pal
| 29> #nprocs 8
| 30> #end
| 31>
| 32> * xyz 0 1
| 33> C  -21.048   26.222   46.251
| 34> C  -20.361   27.558   45.944
| 35> C  -20.329   28.222   47.341
| 36> C  -20.110   27.022   48.296
| 37> O  -20.473   25.807   47.535
| 38> H  -20.833   25.428   45.533
| 39> H  -19.344   27.382   45.576
| 40> H  -20.898   28.157   45.201
| 41> H  -19.543   28.978   47.434
| 42> H  -21.289   28.710   47.548
| 43> H  -20.733   27.082   49.195
| 44> H  -19.064   26.913   48.597
| 45> C  -23.260   27.170   45.210
| 46> H  -24.140   27.702   45.592
| 47> H  -22.567   27.911   44.791
| 48> O  -22.586   26.394   46.375
| 49> C  -23.715   26.239   44.052
| 50> C  -24.816   25.277   44.512
| 51> C  -26.065   26.189   44.476
| 52> C  -25.792   27.111   43.261
| 53> O  -24.343   27.022   42.983
| 54> H  -22.839   25.752   43.620
| 55> O  -24.960   24.109   43.498
| 56> H  -24.629   24.850   45.504
| 57> H  -26.998   25.627   44.372
| 58> H  -26.129   26.776   45.400
| 59> H  -26.056   28.155   43.458
| 60> H  -26.315   26.779   42.360
| 61> H  -25.148   24.512   42.496
| 62> *
| 63>
| 64>                          ****END OF INPUT****
 Total Charge           Charge          ....    0
 Multiplicity           Mult            ....    1
 Number of Electrons    NEL             ....  102
FINAL SINGLE POINT ENERGY      -652.831445497588
FINAL SINGLE POINT ENERGY      -652.854108672789
FINAL SINGLE POINT ENERGY      -652.858017805604
FINAL SINGLE POINT ENERGY      -652.858805020429
FINAL SINGLE POINT ENERGY      -652.858913613340
FINAL SINGLE POINT ENERGY      -652.858930668688
                    ***********************HURRAY********************

CARTESIAN COORDINATES (ANGSTROEM)
---------------------------------
  C    -21.095437   26.254282   46.153824
  C    -20.268003   27.515147   45.907862
  C    -20.313777   28.208034   47.294169
  C    -20.298681   27.012805   48.269213
  O    -20.696756   25.830828   47.463410
  H    -20.896407   25.424328   45.470762
  H    -19.244599   27.209939   45.660765
  H    -20.626820   28.153012   45.097033
  H    -19.468512   28.885070   47.449502
  H    -21.239288   28.782888   47.397003
  H    -21.002480   27.122364   49.097865
  H    -19.301434   26.799006   48.664533
  C    -23.219614   27.241931   45.180636
  H    -24.059753   27.737753   45.676403
  H    -22.588026   28.017540   44.734076
  O    -22.539639   26.496663   46.228642
  C    -23.719835   26.310581   44.072354
  C    -24.766462   25.280379   44.518375
  C    -26.059266   26.132437   44.526683
  C    -25.853805   27.104154   43.338088
  O    -24.399850   27.096068   43.034525
  H    -22.872702   25.814357   43.587486
  O    -24.848482   24.180314   43.568897
  H    -24.531013   24.826685   45.479993
  H    -26.941158   25.497860   44.411312
  H    -26.149641   26.675046   45.473786
  H    -26.163983   28.128604   43.564971
  H    -26.372543   26.776218   42.431604
  H    -24.845032   24.541710   42.657227

 Multiplicity           Mult            ....    1
 Number of Electrons    NEL             ....  102
 Basis Dimension        Dim             ....  149

ORBITAL ENERGIES
----------------

  NO   OCC          E(Eh)            E(eV)
   0   2.0000     -19.145981      -520.9886
   1   2.0000     -19.143286      -520.9153
   2   2.0000     -19.141534      -520.8676
   3   2.0000     -19.134779      -520.6838
   4   2.0000     -10.282863      -279.8109
   5   2.0000     -10.235089      -278.5109
   6   2.0000     -10.233127      -278.4575
   7   2.0000     -10.232971      -278.4533
   8   2.0000     -10.232680      -278.4454
   9   2.0000     -10.226780      -278.2848
  10   2.0000     -10.192471      -277.3512
  11   2.0000     -10.190969      -277.3104
  12   2.0000     -10.187359      -277.2121
  13   2.0000      -1.054285       -28.6886
  14   2.0000      -1.036261       -28.1981
  15   2.0000      -1.004191       -27.3254
  16   2.0000      -0.994465       -27.0608
  17   2.0000      -0.790218       -21.5029
  18   2.0000      -0.780105       -21.2277
  19   2.0000      -0.768112       -20.9014
  20   2.0000      -0.735036       -20.0013
  21   2.0000      -0.679095       -18.4791
  22   2.0000      -0.605302       -16.4711
  23   2.0000      -0.602888       -16.4054
  24   2.0000      -0.601223       -16.3601
  25   2.0000      -0.572263       -15.5721
  26   2.0000      -0.525427       -14.2976
  27   2.0000      -0.515554       -14.0289
  28   2.0000      -0.498263       -13.5584
  29   2.0000      -0.494403       -13.4534
  30   2.0000      -0.472746       -12.8641
  31   2.0000      -0.460679       -12.5357
  32   2.0000      -0.454047       -12.3552
  33   2.0000      -0.438969       -11.9450
  34   2.0000      -0.425705       -11.5840
  35   2.0000      -0.410278       -11.1642
  36   2.0000      -0.407678       -11.0935
  37   2.0000      -0.392419       -10.6783
  38   2.0000      -0.380281       -10.3480
  39   2.0000      -0.368244       -10.0204
  40   2.0000      -0.363211        -9.8835
  41   2.0000      -0.358319        -9.7504
  42   2.0000      -0.356180        -9.6922
  43   2.0000      -0.331331        -9.0160
  44   2.0000      -0.316432        -8.6105
  45   2.0000      -0.307624        -8.3709
  46   2.0000      -0.300331        -8.1724
  47   2.0000      -0.275774        -7.5042
  48   2.0000      -0.263588        -7.1726
  49   2.0000      -0.259713        -7.0671
  50   2.0000      -0.239762        -6.5243
  51   0.0000       0.064382         1.7519
  52   0.0000       0.072059         1.9608
  53   0.0000       0.094478         2.5709
  54   0.0000       0.097386         2.6500
  55   0.0000       0.102357         2.7853

MULLIKEN ATOMIC CHARGES
-----------------------
   0 C :    0.308718
   1 C :   -0.294178
   2 C :   -0.297409
   3 C :   -0.000065
   4 O :   -0.497301
   5 H :    0.150946
   6 H :    0.153597
   7 H :    0.148321
   8 H :    0.144356
   9 H :    0.156321
  10 H :    0.154329
  11 H :    0.143583
  12 C :   -0.029264
  13 H :    0.147850
  14 H :    0.141623
  15 O :   -0.516047
  16 C :    0.057187
  17 C :    0.092830
  18 C :   -0.295503
  19 C :   -0.032410
  20 O :   -0.529132
  21 H :    0.152829
  22 O :   -0.604262
  23 H :    0.180048
  24 H :    0.162293
  25 H :    0.146210
  26 H :    0.146583
  27 H :    0.146747
  28 H :    0.361200
Sum of atomic charges:   -0.0000000

LOEWDIN ATOMIC CHARGES
----------------------
   0 C :    0.182975
   1 C :   -0.233702
   2 C :   -0.216558
   3 C :   -0.025327
   4 O :   -0.301445
   5 H :    0.100741
   6 H :    0.119747
   7 H :    0.115198
   8 H :    0.115439
   9 H :    0.115084
  10 H :    0.109601
  11 H :    0.103549
  12 C :   -0.045558
  13 H :    0.108749
  14 H :    0.101647
  15 O :   -0.335214
  16 C :    0.005482
  17 C :    0.038006
  18 C :   -0.239514
  19 C :   -0.038516
  20 O :   -0.333803
  21 H :    0.110340
  22 O :   -0.415302
  23 H :    0.129737
  24 H :    0.127116
  25 H :    0.114492
  26 H :    0.103910
  27 H :    0.102564
  28 H :    0.280562

  Mayer bond orders larger than 0.100000
B(  0-C ,  1-C ) :   0.9306 B(  0-C ,  4-O ) :   0.9395 B(  0-C ,  5-H ) :   0.9222
B(  0-C , 15-O ) :   0.8294 B(  1-C ,  2-C ) :   0.9489 B(  1-C ,  6-H ) :   0.9333
B(  1-C ,  7-H ) :   0.9262 B(  2-C ,  3-C ) :   0.9555 B(  2-C ,  8-H ) :   0.9450
B(  2-C ,  9-H ) :   0.9459 B(  3-C ,  4-O ) :   0.8350 B(  3-C , 10-H ) :   0.9345
B(  3-C , 11-H ) :   0.9397 B( 12-C , 13-H ) :   0.9384 B( 12-C , 14-H ) :   0.9090
B( 12-C , 15-O ) :   0.8501 B( 12-C , 16-C ) :   0.8750 B( 16-C , 17-C ) :   0.9142
B( 16-C , 20-O ) :   0.8420 B( 16-C , 21-H ) :   0.9293 B( 17-C , 18-C ) :   0.9123
B( 17-C , 22-O ) :   0.8879 B( 17-C , 23-H ) :   0.9228 B( 18-C , 19-C ) :   0.9412
B( 18-C , 24-H ) :   0.9380 B( 18-C , 25-H ) :   0.9347 B( 19-C , 20-O ) :   0.8405
B( 19-C , 26-H ) :   0.9356 B( 19-C , 27-H ) :   0.9382 B( 22-O , 28-H ) :   0.7972

FINAL SINGLE POINT ENERGY      -652.858933867117

DIPOLE MOMENT
-------------
                                X             Y             Z
Electronic contribution:     -0.60355      -4.62331      -1.52268
Nuclear contribution   :      0.71730       6.05357       1.40546
                        -----------------------------------------
Total Dipole Moment    :      0.11374       1.43026      -0.11722
                        -----------------------------------------
Magnitude (a.u.)       :      1.43956
Magnitude (Debye)      :      3.65907

Rotational constants in cm-1:     0.061939     0.012035     0.011305
Rotational constants in MHz :  1856.891669   360.804131   338.903017

                             ****ORCA TERMINATED NORMALLY****
TOTAL RUN TIME: 0 days 0 hours 57 minutes 49 seconds 797 msec
