                         Program Version 4.2.0 -  RELEASE  -
|  1> # Test redundant internal optimization
|  2> #
|  3> ! RKS B3LYP  Opt TightSCF SmallPrint
|  4>
|  5> %basis
|  6>         Basis "6-31G"
|  7> end
|  8>
|  9> %geom
| 10> Constraints
| 11> { D 4  0  15  12  210.0   C } # D for Dihedral angle
| 12> { D 0  15  12  16  165.0   C } # D for Dihedral angle
| 13> { D 0  4  3  2   C } # D for Dihedral angle
| 14> { D 4  3  2  1   C } # D for Dihedral angle
| 15> { D 3  2  1  0   C } # D for Dihedral angle
| 16> { D 2  1  0  4   C } # D for Dihedral angle
| 17> { D 1  0  4  3   C } # D for Dihedral angle
| 18> { D 16  20  19  18   C } # D for Dihedral angle
| 19> { D 20  19  18  17   C } # D for Dihedral angle
| 20> { D 19  18  17  16   C } # D for Dihedral angle
| 21> { D 18  17  16  20   C } # D for Dihedral angle
| 22> { D 17  16  20  19   C } # D for Dihedral angle
| 23> { D 15  12  16  20   C } # D for Dihedral angle
| 24> end
| 25> end
| 26>
| 27>
| 28> #%pal
| 29> #nprocs 8
| 30> #end
| 31>
| 32> * xyz 0 1
| 33> C  -21.048   26.222   46.251
| 34> C  -20.361   27.558   45.944
| 35> C  -20.329   28.222   47.341
| 36> C  -20.110   27.022   48.296
| 37> O  -20.473   25.807   47.535
| 38> H  -20.833   25.428   45.533
| 39> H  -19.344   27.382   45.576
| 40> H  -20.898   28.157   45.201
| 41> H  -19.543   28.978   47.434
| 42> H  -21.289   28.710   47.548
| 43> H  -20.733   27.082   49.195
| 44> H  -19.064   26.913   48.597
| 45> C  -23.389   26.110   45.076
| 46> H  -23.255   26.946   44.378
| 47> H  -23.024   25.196   44.591
| 48> O  -22.586   26.394   46.375
| 49> C  -24.910   25.932   45.337
| 50> C  -25.172   24.837   46.377
| 51> C  -24.876   25.583   47.700
| 52> C  -25.373   27.022   47.411
| 53> O  -25.472   27.145   45.940
| 54> H  -25.422   25.782   44.385
| 55> H  -26.221   24.524   46.337
| 56> O  -24.279   23.582   46.181
| 57> H  -25.378   25.134   48.563
| 58> H  -23.798   25.580   47.901
| 59> H  -24.687   27.787   47.790
| 60> H  -26.371   27.209   47.818
| 61> H  -23.223   23.873   46.218
| 62> *
| 63>
| 64>                          ****END OF INPUT****
 Total Charge           Charge          ....    0
 Multiplicity           Mult            ....    1
 Number of Electrons    NEL             ....  102
FINAL SINGLE POINT ENERGY      -652.833405491982
FINAL SINGLE POINT ENERGY      -652.857034917472
FINAL SINGLE POINT ENERGY      -652.861669302423
FINAL SINGLE POINT ENERGY      -652.863542386707
FINAL SINGLE POINT ENERGY      -652.863734107844
FINAL SINGLE POINT ENERGY      -652.863764505514
FINAL SINGLE POINT ENERGY      -652.863765313687
                    ***********************HURRAY********************

CARTESIAN COORDINATES (ANGSTROEM)
---------------------------------
  C    -21.067284   26.229605   46.167025
  C    -20.364325   27.558113   45.896227
  C    -20.392998   28.224333   47.291716
  C    -20.223875   27.028208   48.251832
  O    -20.564507   25.820473   47.449416
  H    -20.846623   25.427540   45.453756
  H    -19.334643   27.365803   45.572406
  H    -20.865682   28.153366   45.128002
  H    -19.605493   28.973379   47.416417
  H    -21.361077   28.709890   47.446186
  H    -20.889239   27.069664   49.117423
  H    -19.192867   26.894718   48.591445
  C    -23.273434   26.148379   45.066553
  H    -23.145514   26.979190   44.359062
  H    -22.926709   25.220436   44.586906
  O    -22.506411   26.404271   46.277823
  C    -24.754863   26.002052   45.396015
  C    -25.098658   24.860449   46.368743
  C    -24.880410   25.541601   47.756135
  C    -25.341408   26.991699   47.494150
  O    -25.339437   27.180676   46.019957
  H    -25.275895   25.873967   44.439276
  H    -26.139967   24.560328   46.232053
  O    -24.324174   23.652866   46.168149
  H    -25.456531   25.052857   48.547027
  H    -23.816997   25.509575   48.003661
  H    -24.673659   27.733110   47.941262
  H    -26.365497   27.175754   47.833098
  H    -23.432822   23.774698   46.557279

 Multiplicity           Mult            ....    1
 Number of Electrons    NEL             ....  102
 Basis Dimension        Dim             ....  149

ORBITAL ENERGIES
----------------

  NO   OCC          E(Eh)            E(eV)
   0   2.0000     -19.150478      -521.1110
   1   2.0000     -19.148451      -521.0558
   2   2.0000     -19.135869      -520.7135
   3   2.0000     -19.131322      -520.5897
   4   2.0000     -10.287296      -279.9316
   5   2.0000     -10.233549      -278.4690
   6   2.0000     -10.233325      -278.4629
   7   2.0000     -10.231232      -278.4060
   8   2.0000     -10.229221      -278.3513
   9   2.0000     -10.218927      -278.0711
  10   2.0000     -10.191430      -277.3229
  11   2.0000     -10.190772      -277.3050
  12   2.0000     -10.175168      -276.8804
  13   2.0000      -1.061558       -28.8865
  14   2.0000      -1.024766       -27.8853
  15   2.0000      -1.007007       -27.4020
  16   2.0000      -0.999639       -27.2016
  17   2.0000      -0.792108       -21.5544
  18   2.0000      -0.771904       -21.0046
  19   2.0000      -0.763112       -20.7653
  20   2.0000      -0.734640       -19.9906
  21   2.0000      -0.677250       -18.4289
  22   2.0000      -0.605495       -16.4764
  23   2.0000      -0.600531       -16.3413
  24   2.0000      -0.596105       -16.2208
  25   2.0000      -0.570826       -15.5330
  26   2.0000      -0.529721       -14.4144
  27   2.0000      -0.504735       -13.7345
  28   2.0000      -0.500739       -13.6258
  29   2.0000      -0.488688       -13.2979
  30   2.0000      -0.474139       -12.9020
  31   2.0000      -0.454509       -12.3678
  32   2.0000      -0.450683       -12.2637
  33   2.0000      -0.429790       -11.6952
  34   2.0000      -0.422164       -11.4877
  35   2.0000      -0.409961       -11.1556
  36   2.0000      -0.404980       -11.0201
  37   2.0000      -0.399035       -10.8583
  38   2.0000      -0.376908       -10.2562
  39   2.0000      -0.369497       -10.0545
  40   2.0000      -0.361507        -9.8371
  41   2.0000      -0.356217        -9.6932
  42   2.0000      -0.350648        -9.5416
  43   2.0000      -0.323363        -8.7992
  44   2.0000      -0.319380        -8.6908
  45   2.0000      -0.311563        -8.4781
  46   2.0000      -0.305771        -8.3205
  47   2.0000      -0.270459        -7.3596
  48   2.0000      -0.260791        -7.0965
  49   2.0000      -0.257254        -7.0002
  50   2.0000      -0.237025        -6.4498
  51   0.0000       0.063616         1.7311
  52   0.0000       0.081949         2.2299
  53   0.0000       0.091089         2.4786
  54   0.0000       0.098164         2.6712
  55   0.0000       0.104145         2.8339

MULLIKEN ATOMIC CHARGES
-----------------------
   0 C :    0.292921
   1 C :   -0.261421
   2 C :   -0.301432
   3 C :   -0.003920
   4 O :   -0.509962
   5 H :    0.140474
   6 H :    0.145924
   7 H :    0.150973
   8 H :    0.144956
   9 H :    0.165918
  10 H :    0.151752
  11 H :    0.145131
  12 C :   -0.018309
  13 H :    0.144157
  14 H :    0.135252
  15 O :   -0.525685
  16 C :    0.092428
  17 C :    0.088958
  18 C :   -0.318946
  19 C :    0.001152
  20 O :   -0.523211
  21 H :    0.147690
  22 H :    0.159163
  23 O :   -0.610583
  24 H :    0.141638
  25 H :    0.176160
  26 H :    0.144412
  27 H :    0.137649
  28 H :    0.366760
Sum of atomic charges:   -0.0000000

LOEWDIN ATOMIC CHARGES
----------------------
   0 C :    0.175480
   1 C :   -0.225549
   2 C :   -0.216548
   3 C :   -0.025616
   4 O :   -0.312717
   5 H :    0.096764
   6 H :    0.114603
   7 H :    0.119223
   8 H :    0.116050
   9 H :    0.120704
  10 H :    0.107886
  11 H :    0.104154
  12 C :   -0.047568
  13 H :    0.100807
  14 H :    0.099473
  15 O :   -0.336322
  16 C :    0.020043
  17 C :    0.038478
  18 C :   -0.244744
  19 C :   -0.023283
  20 O :   -0.324189
  21 H :    0.113852
  22 H :    0.114498
  23 O :   -0.413520
  24 H :    0.113875
  25 H :    0.126906
  26 H :    0.103832
  27 H :    0.099474
  28 H :    0.283957

  Mayer bond orders larger than 0.100000
B(  0-C ,  1-C ) :   0.9349 B(  0-C ,  4-O ) :   0.9317 B(  0-C ,  5-H ) :   0.9173
B(  0-C , 15-O ) :   0.8294 B(  1-C ,  2-C ) :   0.9537 B(  1-C ,  6-H ) :   0.9342
B(  1-C ,  7-H ) :   0.9362 B(  2-C ,  3-C ) :   0.9558 B(  2-C ,  8-H ) :   0.9446
B(  2-C ,  9-H ) :   0.9427 B(  3-C ,  4-O ) :   0.8321 B(  3-C , 10-H ) :   0.9350
B(  3-C , 11-H ) :   0.9396 B( 12-C , 13-H ) :   0.9197 B( 12-C , 14-H ) :   0.8996
B( 12-C , 15-O ) :   0.8283 B( 12-C , 16-C ) :   0.9166 B( 16-C , 17-C ) :   0.8852
B( 16-C , 20-O ) :   0.8823 B( 16-C , 21-H ) :   0.9280 B( 17-C , 18-C ) :   0.9359
B( 17-C , 22-H ) :   0.9366 B( 17-C , 23-O ) :   0.8989 B( 18-C , 19-C ) :   0.9470
B( 18-C , 24-H ) :   0.9411 B( 18-C , 25-H ) :   0.9217 B( 19-C , 20-O ) :   0.8352
B( 19-C , 26-H ) :   0.9329 B( 19-C , 27-H ) :   0.9389 B( 23-O , 28-H ) :   0.7916

FINAL SINGLE POINT ENERGY      -652.863751517476

DIPOLE MOMENT
-------------
                                X             Y             Z
Electronic contribution:     -2.49574      -3.31045      -1.61690
Nuclear contribution   :      3.39381       4.05016       1.72993
                        -----------------------------------------
Total Dipole Moment    :      0.89807       0.73971       0.11303
                        -----------------------------------------
Magnitude (a.u.)       :      1.16897
Magnitude (Debye)      :      2.97127

Rotational constants in cm-1:     0.045207     0.016026     0.015389
Rotational constants in MHz :  1355.266503   480.458095   461.345631

                             ****ORCA TERMINATED NORMALLY****
TOTAL RUN TIME: 0 days 1 hours 0 minutes 1 seconds 251 msec
