                         Program Version 4.2.0 -  RELEASE  -
|  1> # Test redundant internal optimization
|  2> #
|  3> ! RKS B3LYP  Opt TightSCF SmallPrint
|  4>
|  5> %basis
|  6>         Basis "6-31G"
|  7> end
|  8>
|  9> %geom
| 10> Constraints
| 11> { D 4  0  15  12  150.0   C } # D for Dihedral angle
| 12> { D 0  15  12  16  195.0   C } # D for Dihedral angle
| 13> { D 0  4  3  2   C } # D for Dihedral angle
| 14> { D 4  3  2  1   C } # D for Dihedral angle
| 15> { D 3  2  1  0   C } # D for Dihedral angle
| 16> { D 2  1  0  4   C } # D for Dihedral angle
| 17> { D 1  0  4  3   C } # D for Dihedral angle
| 18> { D 16  20  19  18   C } # D for Dihedral angle
| 19> { D 20  19  18  17   C } # D for Dihedral angle
| 20> { D 19  18  17  16   C } # D for Dihedral angle
| 21> { D 18  17  16  20   C } # D for Dihedral angle
| 22> { D 17  16  20  19   C } # D for Dihedral angle
| 23> { D 15  12  16  20   C } # D for Dihedral angle
| 24> end
| 25> end
| 26>
| 27>
| 28> #%pal
| 29> #nprocs 8
| 30> #end
| 31>
| 32> * xyz 0 1
| 33> C  -21.048   26.222   46.251
| 34> C  -20.361   27.558   45.944
| 35> C  -20.329   28.222   47.341
| 36> C  -20.110   27.022   48.296
| 37> O  -20.473   25.807   47.535
| 38> H  -20.833   25.428   45.533
| 39> H  -19.344   27.382   45.576
| 40> H  -20.898   28.157   45.201
| 41> H  -19.543   28.978   47.434
| 42> H  -21.289   28.710   47.548
| 43> H  -20.733   27.082   49.195
| 44> H  -19.064   26.913   48.597
| 45> C  -23.210   27.459   45.431
| 46> H  -22.588   28.363   45.445
| 47> H  -23.247   27.083   44.401
| 48> O  -22.586   26.394   46.375
| 49> C  -24.655   27.854   45.844
| 50> C  -25.564   26.623   45.935
| 51> C  -25.165   26.040   47.313
| 52> C  -24.872   27.305   48.158
| 53> O  -24.666   28.413   47.199
| 54> H  -25.017   28.634   45.173
| 55> H  -26.615   26.931   45.936
| 56> O  -25.349   25.617   44.772
| 57> H  -25.950   25.417   47.753
| 58> H  -24.264   25.424   47.214
| 59> H  -23.977   27.197   48.779
| 60> H  -25.715   27.585   48.797
| 61> H  -24.302   25.295   44.752
| 62> *
| 63>
| 64>                          ****END OF INPUT****
 Total Charge           Charge          ....    0
 Multiplicity           Mult            ....    1
 Number of Electrons    NEL             ....  102
FINAL SINGLE POINT ENERGY      -652.827100435131
FINAL SINGLE POINT ENERGY      -652.851143203969
FINAL SINGLE POINT ENERGY      -652.856403624806
FINAL SINGLE POINT ENERGY      -652.858616723855
FINAL SINGLE POINT ENERGY      -652.858853305919
FINAL SINGLE POINT ENERGY      -652.858896540923
                    ***********************HURRAY********************

CARTESIAN COORDINATES (ANGSTROEM)
---------------------------------
  C    -21.078245   26.304544   46.182628
  C    -20.244938   27.559162   45.923124
  C    -20.289841   28.266849   47.301427
  C    -20.281119   27.083865   48.291219
  O    -20.683158   25.892583   47.499255
  H    -20.882082   25.466065   45.509287
  H    -19.222839   27.242655   45.685541
  H    -20.596257   28.183785   45.099219
  H    -19.442740   28.942802   47.450554
  H    -21.214911   28.844672   47.400400
  H    -20.985521   27.209072   49.117052
  H    -19.285899   26.869753   48.691245
  C    -23.164634   27.517711   45.378080
  H    -22.612310   28.463813   45.387615
  H    -23.228250   27.157791   44.340716
  O    -22.523021   26.534050   46.235784
  C    -24.570962   27.804766   45.898014
  C    -25.519438   26.595098   45.957832
  C    -25.152315   25.967161   47.337854
  C    -24.834824   27.206545   48.200172
  O    -24.584528   28.329275   47.255908
  H    -24.984503   28.595145   45.258981
  H    -26.556901   26.935206   45.937137
  O    -25.395248   25.689393   44.834052
  H    -25.972903   25.369283   47.746210
  H    -24.264650   25.342311   47.221231
  H    -23.945493   27.066391   48.819921
  H    -25.676362   27.509218   48.831222
  H    -24.573106   25.166036   44.936318

 Multiplicity           Mult            ....    1
 Number of Electrons    NEL             ....  102
 Basis Dimension        Dim             ....  149

ORBITAL ENERGIES
----------------

  NO   OCC          E(Eh)            E(eV)
   0   2.0000     -19.147218      -521.0223
   1   2.0000     -19.144731      -520.9546
   2   2.0000     -19.136467      -520.7297
   3   2.0000     -19.132338      -520.6174
   4   2.0000     -10.287182      -279.9285
   5   2.0000     -10.233313      -278.4626
   6   2.0000     -10.233218      -278.4600
   7   2.0000     -10.229504      -278.3589
   8   2.0000     -10.229299      -278.3534
   9   2.0000     -10.218407      -278.0570
  10   2.0000     -10.195517      -277.4341
  11   2.0000     -10.191886      -277.3353
  12   2.0000     -10.173973      -276.8479
  13   2.0000      -1.057835       -28.7852
  14   2.0000      -1.024887       -27.8886
  15   2.0000      -1.007062       -27.4035
  16   2.0000      -0.995100       -27.0780
  17   2.0000      -0.792478       -21.5644
  18   2.0000      -0.773001       -21.0344
  19   2.0000      -0.763139       -20.7661
  20   2.0000      -0.735093       -20.0029
  21   2.0000      -0.679724       -18.4962
  22   2.0000      -0.606956       -16.5161
  23   2.0000      -0.599133       -16.3032
  24   2.0000      -0.596429       -16.2297
  25   2.0000      -0.563110       -15.3230
  26   2.0000      -0.531588       -14.4652
  27   2.0000      -0.507612       -13.8128
  28   2.0000      -0.500866       -13.6293
  29   2.0000      -0.489071       -13.3083
  30   2.0000      -0.472025       -12.8445
  31   2.0000      -0.457524       -12.4499
  32   2.0000      -0.449205       -12.2235
  33   2.0000      -0.428200       -11.6519
  34   2.0000      -0.420163       -11.4332
  35   2.0000      -0.414813       -11.2876
  36   2.0000      -0.400075       -10.8866
  37   2.0000      -0.397353       -10.8125
  38   2.0000      -0.385319       -10.4851
  39   2.0000      -0.368011       -10.0141
  40   2.0000      -0.362192        -9.8557
  41   2.0000      -0.356420        -9.6987
  42   2.0000      -0.349885        -9.5209
  43   2.0000      -0.323840        -8.8121
  44   2.0000      -0.315574        -8.5872
  45   2.0000      -0.306536        -8.3413
  46   2.0000      -0.299007        -8.1364
  47   2.0000      -0.272061        -7.4031
  48   2.0000      -0.258807        -7.0425
  49   2.0000      -0.256530        -6.9805
  50   2.0000      -0.237893        -6.4734
  51   0.0000       0.065064         1.7705
  52   0.0000       0.080564         2.1923
  53   0.0000       0.094601         2.5742
  54   0.0000       0.099013         2.6943
  55   0.0000       0.102324         2.7844

MULLIKEN ATOMIC CHARGES
-----------------------
   0 C :    0.322111
   1 C :   -0.300649
   2 C :   -0.306361
   3 C :   -0.002933
   4 O :   -0.499987
   5 H :    0.147364
   6 H :    0.154169
   7 H :    0.147349
   8 H :    0.145674
   9 H :    0.173408
  10 H :    0.154819
  11 H :    0.144535
  12 C :   -0.019010
  13 H :    0.143840
  14 H :    0.135502
  15 O :   -0.541772
  16 C :    0.087429
  17 C :    0.090157
  18 C :   -0.316086
  19 C :   -0.006829
  20 O :   -0.524204
  21 H :    0.148398
  22 H :    0.158996
  23 O :   -0.609240
  24 H :    0.141192
  25 H :    0.179399
  26 H :    0.150306
  27 H :    0.139464
  28 H :    0.362957
Sum of atomic charges:   -0.0000000

LOEWDIN ATOMIC CHARGES
----------------------
   0 C :    0.184946
   1 C :   -0.233236
   2 C :   -0.218847
   3 C :   -0.025772
   4 O :   -0.307341
   5 H :    0.100360
   6 H :    0.120506
   7 H :    0.115829
   8 H :    0.116416
   9 H :    0.122071
  10 H :    0.108719
  11 H :    0.103972
  12 C :   -0.050444
  13 H :    0.102031
  14 H :    0.097276
  15 O :   -0.344507
  16 C :    0.018933
  17 C :    0.038454
  18 C :   -0.243739
  19 C :   -0.024833
  20 O :   -0.325734
  21 H :    0.112982
  22 H :    0.114871
  23 O :   -0.413024
  24 H :    0.113512
  25 H :    0.128708
  26 H :    0.106263
  27 H :    0.099614
  28 H :    0.282015

  Mayer bond orders larger than 0.100000
B(  0-C ,  1-C ) :   0.9355 B(  0-C ,  4-O ) :   0.9386 B(  0-C ,  5-H ) :   0.9261
B(  0-C , 15-O ) :   0.8236 B(  1-C ,  2-C ) :   0.9488 B(  1-C ,  6-H ) :   0.9334
B(  1-C ,  7-H ) :   0.9270 B(  2-C ,  3-C ) :   0.9541 B(  2-C ,  8-H ) :   0.9449
B(  2-C ,  9-H ) :   0.9374 B(  3-C ,  4-O ) :   0.8329 B(  3-C , 10-H ) :   0.9331
B(  3-C , 11-H ) :   0.9398 B( 12-C , 13-H ) :   0.9091 B( 12-C , 14-H ) :   0.9046
B( 12-C , 15-O ) :   0.8330 B( 12-C , 16-C ) :   0.9083 B( 16-C , 17-C ) :   0.8872
B( 16-C , 20-O ) :   0.8836 B( 16-C , 21-H ) :   0.9286 B( 17-C , 18-C ) :   0.9345
B( 17-C , 22-H ) :   0.9365 B( 17-C , 23-O ) :   0.8995 B( 18-C , 19-C ) :   0.9473
B( 18-C , 24-H ) :   0.9412 B( 18-C , 25-H ) :   0.9219 B( 19-C , 20-O ) :   0.8335
B( 19-C , 26-H ) :   0.9310 B( 19-C , 27-H ) :   0.9377 B( 23-O , 28-H ) :   0.7934

FINAL SINGLE POINT ENERGY      -652.858897484271

DIPOLE MOMENT
-------------
                                X             Y             Z
Electronic contribution:     -2.63865      -2.29485      -1.35616
Nuclear contribution   :      3.61541       2.73993       1.27018
                        -----------------------------------------
Total Dipole Moment    :      0.97676       0.44508      -0.08598
                        -----------------------------------------
Magnitude (a.u.)       :      1.07682
Magnitude (Debye)      :      2.73707

Rotational constants in cm-1:     0.046885     0.016815     0.015726
Rotational constants in MHz :  1405.571472   504.098456   471.464162

                             ****ORCA TERMINATED NORMALLY****
TOTAL RUN TIME: 0 days 0 hours 23 minutes 33 seconds 798 msec
