                         Program Version 4.2.0 -  RELEASE  -
|  1> # Test redundant internal optimization
|  2> #
|  3> ! RKS B3LYP  Opt TightSCF SmallPrint
|  4>
|  5> %basis
|  6>         Basis "6-31G"
|  7> end
|  8>
|  9> %geom
| 10> Constraints
| 11> { D 4  0  15  12  60.0   C } # D for Dihedral angle
| 12> { D 0  15  12  16  150.0   C } # D for Dihedral angle
| 13> { D 0  4  3  2   C } # D for Dihedral angle
| 14> { D 4  3  2  1   C } # D for Dihedral angle
| 15> { D 3  2  1  0   C } # D for Dihedral angle
| 16> { D 2  1  0  4   C } # D for Dihedral angle
| 17> { D 1  0  4  3   C } # D for Dihedral angle
| 18> { D 16  20  19  18   C } # D for Dihedral angle
| 19> { D 20  19  18  17   C } # D for Dihedral angle
| 20> { D 19  18  17  16   C } # D for Dihedral angle
| 21> { D 18  17  16  20   C } # D for Dihedral angle
| 22> { D 17  16  20  19   C } # D for Dihedral angle
| 23> { D 15  12  16  20   C } # D for Dihedral angle
| 24> end
| 25> end
| 26>
| 27>
| 28> #%pal
| 29> #nprocs 8
| 30> #end
| 31>
| 32> * xyz 0 1
| 33> C  -21.048   26.222   46.251
| 34> C  -20.361   27.558   45.944
| 35> C  -20.329   28.222   47.341
| 36> C  -20.110   27.022   48.296
| 37> O  -20.473   25.807   47.535
| 38> H  -20.833   25.428   45.533
| 39> H  -19.344   27.382   45.576
| 40> H  -20.898   28.157   45.201
| 41> H  -19.543   28.978   47.434
| 42> H  -21.289   28.710   47.548
| 43> H  -20.733   27.082   49.195
| 44> H  -19.064   26.913   48.597
| 45> C  -23.051   27.452   47.413
| 46> H  -23.173   26.969   48.391
| 47> H  -22.300   28.246   47.514
| 48> O  -22.586   26.394   46.375
| 49> C  -24.399   28.121   47.027
| 50> C  -24.331   28.741   45.626
| 51> C  -24.513   27.497   44.724
| 52> C  -25.497   26.616   45.533
| 53> O  -25.460   27.114   46.926
| 54> H  -24.692   28.817   47.815
| 55> H  -25.159   29.444   45.487
| 56> O  -22.999   29.492   45.354
| 57> H  -24.897   27.746   43.729
| 58> H  -23.553   26.983   44.593
| 59> H  -25.219   25.557   45.523
| 60> H  -26.530   26.714   45.184
| 61> H  -22.156   28.806   45.489
| 62> *
| 63>
| 64>                          ****END OF INPUT****
 Total Charge           Charge          ....    0
 Multiplicity           Mult            ....    1
 Number of Electrons    NEL             ....  102
FINAL SINGLE POINT ENERGY      -652.785310542905
FINAL SINGLE POINT ENERGY      -652.827577184074
FINAL SINGLE POINT ENERGY      -652.847219626626
FINAL SINGLE POINT ENERGY      -652.851877503776
FINAL SINGLE POINT ENERGY      -652.852718321245
FINAL SINGLE POINT ENERGY      -652.852961253488
FINAL SINGLE POINT ENERGY      -652.853007682918
FINAL SINGLE POINT ENERGY      -652.853016265879
FINAL SINGLE POINT ENERGY      -652.853015731696
FINAL SINGLE POINT ENERGY      -652.853003329538
FINAL SINGLE POINT ENERGY      -652.852996955112
                    ***********************HURRAY********************

CARTESIAN COORDINATES (ANGSTROEM)
---------------------------------
  C    -21.155951   26.304438   46.493199
  C    -20.282367   27.469228   45.999993
  C    -19.954249   28.219645   47.329460
  C    -19.839407   27.053721   48.344634
  O    -20.512041   25.890485   47.718200
  H    -21.105378   25.441832   45.825871
  H    -19.371794   27.052179   45.558545
  H    -20.770284   28.095354   45.248469
  H    -19.019392   28.785097   47.260709
  H    -20.743462   28.927040   47.592906
  H    -20.319350   27.268089   49.304009
  H    -18.800797   26.761579   48.523056
  C    -23.189845   27.449444   47.522145
  H    -23.373438   26.941283   48.474738
  H    -22.539650   28.310177   47.698782
  O    -22.584392   26.486211   46.601462
  C    -24.515309   27.981913   46.983122
  C    -24.469548   28.735684   45.643540
  C    -24.571552   27.569397   44.614519
  C    -25.509883   26.571647   45.328911
  O    -25.509702   26.941521   46.765315
  H    -24.920655   28.626253   47.774220
  H    -25.338573   29.394158   45.571278
  O    -23.322729   29.607499   45.482243
  H    -24.964739   27.901804   43.649499
  H    -23.581593   27.129495   44.471205
  H    -25.170278   25.537045   45.234068
  H    -26.544785   26.648274   44.980477
  H    -22.558855   29.089507   45.159425

 Multiplicity           Mult            ....    1
 Number of Electrons    NEL             ....  102
 Basis Dimension        Dim             ....  149

ORBITAL ENERGIES
----------------

  NO   OCC          E(Eh)            E(eV)
   0   2.0000     -19.149322      -521.0795
   1   2.0000     -19.148209      -521.0492
   2   2.0000     -19.146328      -520.9981
   3   2.0000     -19.131832      -520.6036
   4   2.0000     -10.286636      -279.9136
   5   2.0000     -10.239231      -278.6237
   6   2.0000     -10.235367      -278.5185
   7   2.0000     -10.230082      -278.3747
   8   2.0000     -10.229355      -278.3549
   9   2.0000     -10.221109      -278.1305
  10   2.0000     -10.203346      -277.6471
  11   2.0000     -10.200527      -277.5705
  12   2.0000     -10.183052      -277.0949
  13   2.0000      -1.057469       -28.7752
  14   2.0000      -1.029905       -28.0251
  15   2.0000      -1.012236       -27.5443
  16   2.0000      -0.998265       -27.1642
  17   2.0000      -0.796904       -21.6849
  18   2.0000      -0.777592       -21.1594
  19   2.0000      -0.769349       -20.9350
  20   2.0000      -0.737830       -20.0774
  21   2.0000      -0.682640       -18.5756
  22   2.0000      -0.613147       -16.6846
  23   2.0000      -0.604721       -16.4553
  24   2.0000      -0.604387       -16.4462
  25   2.0000      -0.563342       -15.3293
  26   2.0000      -0.524126       -14.2622
  27   2.0000      -0.518280       -14.1031
  28   2.0000      -0.505996       -13.7688
  29   2.0000      -0.496262       -13.5040
  30   2.0000      -0.471489       -12.8299
  31   2.0000      -0.452435       -12.3114
  32   2.0000      -0.447060       -12.1651
  33   2.0000      -0.432598       -11.7716
  34   2.0000      -0.427760       -11.6400
  35   2.0000      -0.425510       -11.5787
  36   2.0000      -0.406062       -11.0495
  37   2.0000      -0.402432       -10.9507
  38   2.0000      -0.386630       -10.5207
  39   2.0000      -0.372686       -10.1413
  40   2.0000      -0.371487       -10.1087
  41   2.0000      -0.360671        -9.8143
  42   2.0000      -0.348289        -9.4774
  43   2.0000      -0.324119        -8.8197
  44   2.0000      -0.321913        -8.7597
  45   2.0000      -0.313047        -8.5184
  46   2.0000      -0.309110        -8.4113
  47   2.0000      -0.270836        -7.3698
  48   2.0000      -0.265127        -7.2145
  49   2.0000      -0.258096        -7.0231
  50   2.0000      -0.236842        -6.4448
  51   0.0000       0.039414         1.0725
  52   0.0000       0.071966         1.9583
  53   0.0000       0.091002         2.4763
  54   0.0000       0.097071         2.6414
  55   0.0000       0.099721         2.7135

MULLIKEN ATOMIC CHARGES
-----------------------
   0 C :    0.305105
   1 C :   -0.281786
   2 C :   -0.320889
   3 C :   -0.010422
   4 O :   -0.503043
   5 H :    0.166281
   6 H :    0.162391
   7 H :    0.126157
   8 H :    0.149458
   9 H :    0.164695
  10 H :    0.148859
  11 H :    0.151121
  12 C :   -0.015732
  13 H :    0.163430
  14 H :    0.132759
  15 O :   -0.530287
  16 C :    0.092656
  17 C :    0.082835
  18 C :   -0.314526
  19 C :    0.001462
  20 O :   -0.518879
  21 H :    0.148461
  22 H :    0.162107
  23 O :   -0.618570
  24 H :    0.141718
  25 H :    0.153082
  26 H :    0.153119
  27 H :    0.140330
  28 H :    0.368108
Sum of atomic charges:   -0.0000000

LOEWDIN ATOMIC CHARGES
----------------------
   0 C :    0.174392
   1 C :   -0.228778
   2 C :   -0.224708
   3 C :   -0.032680
   4 O :   -0.317459
   5 H :    0.112740
   6 H :    0.125424
   7 H :    0.104062
   8 H :    0.117641
   9 H :    0.113767
  10 H :    0.105196
  11 H :    0.106772
  12 C :   -0.046497
  13 H :    0.115698
  14 H :    0.100170
  15 O :   -0.325421
  16 C :    0.019473
  17 C :    0.037184
  18 C :   -0.241745
  19 C :   -0.022468
  20 O :   -0.320608
  21 H :    0.113380
  22 H :    0.115553
  23 O :   -0.413817
  24 H :    0.113792
  25 H :    0.115699
  26 H :    0.109058
  27 H :    0.100299
  28 H :    0.273883

  Mayer bond orders larger than 0.100000
B(  0-C ,  1-C ) :   0.9114 B(  0-C ,  4-O ) :   0.9045 B(  0-C ,  5-H ) :   0.9363
B(  0-C , 15-O ) :   0.8967 B(  1-C ,  2-C ) :   0.9545 B(  1-C ,  6-H ) :   0.9324
B(  1-C ,  7-H ) :   0.9277 B(  2-C ,  3-C ) :   0.9456 B(  2-C ,  8-H ) :   0.9438
B(  2-C ,  9-H ) :   0.9329 B(  3-C ,  4-O ) :   0.8430 B(  3-C , 10-H ) :   0.9334
B(  3-C , 11-H ) :   0.9385 B( 12-C , 13-H ) :   0.9241 B( 12-C , 14-H ) :   0.8898
B( 12-C , 15-O ) :   0.8248 B( 12-C , 16-C ) :   0.9188 B( 16-C , 17-C ) :   0.8814
B( 16-C , 20-O ) :   0.8794 B( 16-C , 21-H ) :   0.9276 B( 17-C , 18-C ) :   0.9395
B( 17-C , 22-H ) :   0.9349 B( 17-C , 23-O ) :   0.8962 B( 18-C , 19-C ) :   0.9458
B( 18-C , 24-H ) :   0.9407 B( 18-C , 25-H ) :   0.9284 B( 19-C , 20-O ) :   0.8402
B( 19-C , 26-H ) :   0.9314 B( 19-C , 27-H ) :   0.9375 B( 23-O , 28-H ) :   0.7772

FINAL SINGLE POINT ENERGY      -652.852996523124

DIPOLE MOMENT
-------------
                                X             Y             Z
Electronic contribution:     -3.13058      -2.53148       1.36475
Nuclear contribution   :      4.14446       3.13660      -1.92126
                        -----------------------------------------
Total Dipole Moment    :      1.01388       0.60512      -0.55651
                        -----------------------------------------
Magnitude (a.u.)       :      1.30531
Magnitude (Debye)      :      3.31784

Rotational constants in cm-1:     0.049482     0.016507     0.015040
Rotational constants in MHz :  1483.438961   494.880217   450.892888

                             ****ORCA TERMINATED NORMALLY****
TOTAL RUN TIME: 0 days 0 hours 48 minutes 51 seconds 851 msec
