                         Program Version 4.2.0 -  RELEASE  -
|  1> # Test redundant internal optimization
|  2> #
|  3> ! RKS B3LYP  Opt TightSCF SmallPrint
|  4>
|  5> %basis
|  6>         Basis "6-31G"
|  7> end
|  8>
|  9> %geom
| 10> Constraints
| 11> { D 4  0  15  12  315.0   C } # D for Dihedral angle
| 12> { D 0  15  12  16  150.0   C } # D for Dihedral angle
| 13> { D 0  4  3  2   C } # D for Dihedral angle
| 14> { D 4  3  2  1   C } # D for Dihedral angle
| 15> { D 3  2  1  0   C } # D for Dihedral angle
| 16> { D 2  1  0  4   C } # D for Dihedral angle
| 17> { D 1  0  4  3   C } # D for Dihedral angle
| 18> { D 16  20  19  18   C } # D for Dihedral angle
| 19> { D 20  19  18  17   C } # D for Dihedral angle
| 20> { D 19  18  17  16   C } # D for Dihedral angle
| 21> { D 18  17  16  20   C } # D for Dihedral angle
| 22> { D 17  16  20  19   C } # D for Dihedral angle
| 23> { D 15  12  16  20   C } # D for Dihedral angle
| 24> end
| 25> end
| 26>
| 27>
| 28> #%pal
| 29> #nprocs 8
| 30> #end
| 31>
| 32> * xyz 0 1
| 33> C  -21.048   26.222   46.251
| 34> C  -20.361   27.558   45.944
| 35> C  -20.329   28.222   47.341
| 36> C  -20.110   27.022   48.296
| 37> O  -20.473   25.807   47.535
| 38> H  -20.833   25.428   45.533
| 39> H  -19.344   27.382   45.576
| 40> H  -20.898   28.157   45.201
| 41> H  -19.543   28.978   47.434
| 42> H  -21.289   28.710   47.548
| 43> H  -20.733   27.082   49.195
| 44> H  -19.064   26.913   48.597
| 45> C  -23.319   25.255   47.135
| 46> H  -23.611   24.473   46.422
| 47> H  -22.655   24.804   47.885
| 48> O  -22.586   26.394   46.375
| 49> C  -24.596   25.748   47.870
| 50> C  -25.654   26.240   46.876
| 51> C  -26.266   24.907   46.383
| 52> C  -26.219   24.010   47.645
| 53> O  -25.247   24.634   48.568
| 54> H  -24.313   26.479   48.628
| 55> O  -26.722   27.093   47.615
| 56> H  -25.235   26.842   46.063
| 57> H  -27.281   25.025   45.992
| 58> H  -25.647   24.483   45.583
| 59> H  -25.896   22.988   47.422
| 60> H  -27.179   23.971   48.166
| 61> H  -27.157   26.509   48.435
| 62> *
| 63>
| 64>                          ****END OF INPUT****
 Total Charge           Charge          ....    0
 Multiplicity           Mult            ....    1
 Number of Electrons    NEL             ....  102
FINAL SINGLE POINT ENERGY      -652.841330370566
FINAL SINGLE POINT ENERGY      -652.864939192266
FINAL SINGLE POINT ENERGY      -652.868825125992
FINAL SINGLE POINT ENERGY      -652.869479719973
FINAL SINGLE POINT ENERGY      -652.869567923793
FINAL SINGLE POINT ENERGY      -652.869580961565
                    ***********************HURRAY********************

CARTESIAN COORDINATES (ANGSTROEM)
---------------------------------
  C    -21.110256   26.144483   46.283233
  C    -20.600399   27.554786   45.988839
  C    -20.590024   28.185896   47.398548
  C    -20.194019   27.006920   48.313411
  O    -20.449797   25.773816   47.515218
  H    -20.840615   25.372507   45.555341
  H    -19.588783   27.492456   45.572309
  H    -21.244800   28.085377   45.284727
  H    -19.891183   29.024030   47.478546
  H    -21.592380   28.547132   47.645038
  H    -20.779667   26.957860   49.234610
  H    -19.128998   26.996815   48.561651
  C    -23.202341   25.126597   47.131378
  H    -23.461068   24.322173   46.428885
  H    -22.533434   24.724381   47.896505
  O    -22.551049   26.220124   46.414106
  C    -24.448695   25.708578   47.793084
  C    -25.502086   26.261971   46.823323
  C    -26.226699   24.967577   46.375290
  C    -26.204281   24.088424   47.650402
  O    -25.154587   24.656195   48.533854
  H    -24.151467   26.470912   48.518754
  O    -26.406480   27.174714   47.508073
  H    -25.068331   26.832142   46.003637
  H    -27.238866   25.191178   46.030019
  H    -25.681393   24.491491   45.553138
  H    -25.964651   23.040887   47.442558
  H    -27.147249   24.127652   48.204725
  H    -26.654400   26.788926   48.374799

 Multiplicity           Mult            ....    1
 Number of Electrons    NEL             ....  102
 Basis Dimension        Dim             ....  149

ORBITAL ENERGIES
----------------

  NO   OCC          E(Eh)            E(eV)
   0   2.0000     -19.147308      -521.0247
   1   2.0000     -19.145790      -520.9834
   2   2.0000     -19.142517      -520.8944
   3   2.0000     -19.133242      -520.6420
   4   2.0000     -10.280836      -279.7558
   5   2.0000     -10.232877      -278.4507
   6   2.0000     -10.230091      -278.3749
   7   2.0000     -10.229713      -278.3646
   8   2.0000     -10.229253      -278.3521
   9   2.0000     -10.223917      -278.2069
  10   2.0000     -10.187327      -277.2113
  11   2.0000     -10.187083      -277.2046
  12   2.0000     -10.185127      -277.1514
  13   2.0000      -1.057123       -28.7658
  14   2.0000      -1.033299       -28.1175
  15   2.0000      -1.001756       -27.2592
  16   2.0000      -0.995180       -27.0802
  17   2.0000      -0.792388       -21.5620
  18   2.0000      -0.776787       -21.1374
  19   2.0000      -0.765730       -20.8366
  20   2.0000      -0.730413       -19.8756
  21   2.0000      -0.671040       -18.2599
  22   2.0000      -0.601785       -16.3754
  23   2.0000      -0.601428       -16.3657
  24   2.0000      -0.589900       -16.0520
  25   2.0000      -0.578606       -15.7447
  26   2.0000      -0.522123       -14.2077
  27   2.0000      -0.513139       -13.9632
  28   2.0000      -0.497456       -13.5365
  29   2.0000      -0.489943       -13.3320
  30   2.0000      -0.471706       -12.8358
  31   2.0000      -0.455153       -12.3853
  32   2.0000      -0.451460       -12.2849
  33   2.0000      -0.435352       -11.8465
  34   2.0000      -0.421467       -11.4687
  35   2.0000      -0.411131       -11.1874
  36   2.0000      -0.400367       -10.8945
  37   2.0000      -0.389593       -10.6014
  38   2.0000      -0.375219       -10.2102
  39   2.0000      -0.364483        -9.9181
  40   2.0000      -0.359999        -9.7961
  41   2.0000      -0.355778        -9.6812
  42   2.0000      -0.350435        -9.5358
  43   2.0000      -0.340173        -9.2566
  44   2.0000      -0.323407        -8.8004
  45   2.0000      -0.307068        -8.3558
  46   2.0000      -0.296085        -8.0569
  47   2.0000      -0.273613        -7.4454
  48   2.0000      -0.262089        -7.1318
  49   2.0000      -0.260483        -7.0881
  50   2.0000      -0.244578        -6.6553
  51   0.0000       0.067156         1.8274
  52   0.0000       0.078603         2.1389
  53   0.0000       0.094417         2.5692
  54   0.0000       0.101826         2.7708
  55   0.0000       0.104339         2.8392

MULLIKEN ATOMIC CHARGES
-----------------------
   0 C :    0.297680
   1 C :   -0.263268
   2 C :   -0.298567
   3 C :   -0.012549
   4 O :   -0.512595
   5 H :    0.146396
   6 H :    0.145954
   7 H :    0.160943
   8 H :    0.143615
   9 H :    0.162861
  10 H :    0.149939
  11 H :    0.148148
  12 C :   -0.012799
  13 H :    0.125223
  14 H :    0.179494
  15 O :   -0.538240
  16 C :    0.058881
  17 C :    0.089757
  18 C :   -0.297892
  19 C :   -0.033603
  20 O :   -0.527903
  21 H :    0.158112
  22 O :   -0.606138
  23 H :    0.174081
  24 H :    0.160600
  25 H :    0.145522
  26 H :    0.148075
  27 H :    0.145816
  28 H :    0.362459
Sum of atomic charges:   -0.0000000

LOEWDIN ATOMIC CHARGES
----------------------
   0 C :    0.176778
   1 C :   -0.214674
   2 C :   -0.216252
   3 C :   -0.029643
   4 O :   -0.325146
   5 H :    0.097052
   6 H :    0.114610
   7 H :    0.126155
   8 H :    0.115238
   9 H :    0.119244
  10 H :    0.106262
  11 H :    0.105642
  12 C :   -0.045499
  13 H :    0.091949
  14 H :    0.122200
  15 O :   -0.338645
  16 C :    0.017269
  17 C :    0.037578
  18 C :   -0.241083
  19 C :   -0.039052
  20 O :   -0.331679
  21 H :    0.114548
  22 O :   -0.417293
  23 H :    0.126810
  24 H :    0.126047
  25 H :    0.114036
  26 H :    0.104386
  27 H :    0.101961
  28 H :    0.281203

  Mayer bond orders larger than 0.100000
B(  0-C ,  1-C ) :   0.9481 B(  0-C ,  4-O ) :   0.9046 B(  0-C ,  5-H ) :   0.9221
B(  0-C , 15-O ) :   0.8477 B(  1-C ,  2-C ) :   0.9546 B(  1-C ,  6-H ) :   0.9391
B(  1-C ,  7-H ) :   0.9352 B(  2-C ,  3-C ) :   0.9557 B(  2-C ,  8-H ) :   0.9447
B(  2-C ,  9-H ) :   0.9436 B(  3-C ,  4-O ) :   0.8296 B(  3-C , 10-H ) :   0.9353
B(  3-C , 11-H ) :   0.9403 B( 12-C , 13-H ) :   0.9244 B( 12-C , 14-H ) :   0.9054
B( 12-C , 15-O ) :   0.8144 B( 12-C , 16-C ) :   0.9061 B( 16-C , 17-C ) :   0.9125
B( 16-C , 20-O ) :   0.8433 B( 16-C , 21-H ) :   0.9265 B( 17-C , 18-C ) :   0.9132
B( 17-C , 22-O ) :   0.8892 B( 17-C , 23-H ) :   0.9249 B( 18-C , 19-C ) :   0.9413
B( 18-C , 24-H ) :   0.9380 B( 18-C , 25-H ) :   0.9350 B( 19-C , 20-O ) :   0.8449
B( 19-C , 26-H ) :   0.9349 B( 19-C , 27-H ) :   0.9379 B( 22-O , 28-H ) :   0.7958

FINAL SINGLE POINT ENERGY      -652.869583040700

DIPOLE MOMENT
-------------
                                X             Y             Z
Electronic contribution:     -1.36923      -1.36935       1.32879
Nuclear contribution   :      1.73687       1.33107      -1.69359
                        -----------------------------------------
Total Dipole Moment    :      0.36764      -0.03828      -0.36480
                        -----------------------------------------
Magnitude (a.u.)       :      0.51933
Magnitude (Debye)      :      1.32003

Rotational constants in cm-1:     0.055840     0.012900     0.012298
Rotational constants in MHz :  1674.041113   386.725086   368.690050

                             ****ORCA TERMINATED NORMALLY****
TOTAL RUN TIME: 0 days 0 hours 26 minutes 43 seconds 875 msec
