                         Program Version 4.2.0 -  RELEASE  -
|  1> # Test redundant internal optimization
|  2> #
|  3> ! RKS B3LYP  Opt TightSCF SmallPrint
|  4>
|  5> %basis
|  6>         Basis "6-31G"
|  7> end
|  8>
|  9> %geom
| 10> Constraints
| 11> { D 4  0  15  12  240.0   C } # D for Dihedral angle
| 12> { D 0  15  12  16  315.0   C } # D for Dihedral angle
| 13> { D 0  4  3  2   C } # D for Dihedral angle
| 14> { D 4  3  2  1   C } # D for Dihedral angle
| 15> { D 3  2  1  0   C } # D for Dihedral angle
| 16> { D 2  1  0  4   C } # D for Dihedral angle
| 17> { D 1  0  4  3   C } # D for Dihedral angle
| 18> { D 16  20  19  18   C } # D for Dihedral angle
| 19> { D 20  19  18  17   C } # D for Dihedral angle
| 20> { D 19  18  17  16   C } # D for Dihedral angle
| 21> { D 18  17  16  20   C } # D for Dihedral angle
| 22> { D 17  16  20  19   C } # D for Dihedral angle
| 23> { D 15  12  16  20   C } # D for Dihedral angle
| 24> end
| 25> end
| 26>
| 27>
| 28> #%pal
| 29> #nprocs 8
| 30> #end
| 31>
| 32> * xyz 0 1
| 33> C  -21.048   26.222   46.251
| 34> C  -20.361   27.558   45.944
| 35> C  -20.329   28.222   47.341
| 36> C  -20.110   27.022   48.296
| 37> O  -20.473   25.807   47.535
| 38> H  -20.833   25.428   45.533
| 39> H  -19.344   27.382   45.576
| 40> H  -20.898   28.157   45.201
| 41> H  -19.543   28.978   47.434
| 42> H  -21.289   28.710   47.548
| 43> H  -20.733   27.082   49.195
| 44> H  -19.064   26.913   48.597
| 45> C  -23.430   25.483   45.442
| 46> H  -23.431   24.460   45.839
| 47> H  -24.469   25.834   45.399
| 48> O  -22.586   26.394   46.375
| 49> C  -22.884   25.442   43.988
| 50> C  -23.803   24.629   43.071
| 51> C  -24.935   25.644   42.781
| 52> C  -24.186   26.999   42.731
| 53> O  -22.886   26.786   43.402
| 54> H  -21.846   25.101   44.005
| 55> O  -23.055   24.253   41.762
| 56> H  -24.169   23.707   43.536
| 57> H  -25.471   25.428   41.851
| 58> H  -25.666   25.636   43.598
| 59> H  -24.730   27.798   43.249
| 60> H  -23.973   27.321   41.708
| 61> H  -22.680   25.162   41.279
| 62> *
| 63>
| 64>                          ****END OF INPUT****
 Total Charge           Charge          ....    0
 Multiplicity           Mult            ....    1
 Number of Electrons    NEL             ....  102
FINAL SINGLE POINT ENERGY      -652.830164756693
FINAL SINGLE POINT ENERGY      -652.853113290002
FINAL SINGLE POINT ENERGY      -652.857577959069
FINAL SINGLE POINT ENERGY      -652.858270416742
FINAL SINGLE POINT ENERGY      -652.858380459405
FINAL SINGLE POINT ENERGY      -652.858390507854
                    ***********************HURRAY********************

CARTESIAN COORDINATES (ANGSTROEM)
---------------------------------
  C    -20.965198   26.207124   46.179754
  C    -20.369255   27.596435   45.958308
  C    -20.443566   28.202884   47.377627
  C    -20.176699   26.986859   48.292054
  O    -20.423079   25.787040   47.451573
  H    -20.670695   25.446411   45.455349
  H    -19.327049   27.498300   45.630713
  H    -20.929470   28.156954   45.207854
  H    -19.718326   29.007585   47.531554
  H    -21.447308   28.601435   47.553082
  H    -20.838957   26.948905   49.160740
  H    -19.136490   26.926300   48.626765
  C    -23.268929   25.529830   45.419943
  H    -23.330303   24.502517   45.814239
  H    -24.251620   25.995815   45.525590
  O    -22.406505   26.330398   46.271231
  C    -22.863258   25.451823   43.944270
  C    -23.855605   24.646440   43.092363
  C    -24.962564   25.700432   42.815664
  C    -24.161699   27.021545   42.688893
  O    -22.838748   26.775946   43.313135
  H    -21.858531   25.037156   43.834132
  O    -23.228419   24.183821   41.865638
  H    -24.228128   23.744871   43.579907
  H    -25.517284   25.448282   41.908524
  H    -25.669463   25.738830   43.651771
  H    -24.644333   27.860335   43.198453
  H    -23.979022   27.304019   41.647541
  H    -22.714495   24.919709   41.470334

 Multiplicity           Mult            ....    1
 Number of Electrons    NEL             ....  102
 Basis Dimension        Dim             ....  149

ORBITAL ENERGIES
----------------

  NO   OCC          E(Eh)            E(eV)
   0   2.0000     -19.149956      -521.0968
   1   2.0000     -19.145380      -520.9723
   2   2.0000     -19.135980      -520.7165
   3   2.0000     -19.130597      -520.5700
   4   2.0000     -10.272542      -279.5301
   5   2.0000     -10.250004      -278.9168
   6   2.0000     -10.241573      -278.6874
   7   2.0000     -10.237488      -278.5762
   8   2.0000     -10.235192      -278.5137
   9   2.0000     -10.216966      -278.0178
  10   2.0000     -10.196551      -277.4623
  11   2.0000     -10.176891      -276.9273
  12   2.0000     -10.173871      -276.8451
  13   2.0000      -1.048132       -28.5211
  14   2.0000      -1.040152       -28.3040
  15   2.0000      -1.012899       -27.5624
  16   2.0000      -0.987147       -26.8616
  17   2.0000      -0.791707       -21.5434
  18   2.0000      -0.778107       -21.1734
  19   2.0000      -0.769086       -20.9279
  20   2.0000      -0.730479       -19.8774
  21   2.0000      -0.675389       -18.3783
  22   2.0000      -0.611640       -16.6436
  23   2.0000      -0.609502       -16.5854
  24   2.0000      -0.589508       -16.0413
  25   2.0000      -0.568673       -15.4744
  26   2.0000      -0.532600       -14.4928
  27   2.0000      -0.514448       -13.9988
  28   2.0000      -0.491707       -13.3800
  29   2.0000      -0.487537       -13.2666
  30   2.0000      -0.473637       -12.8883
  31   2.0000      -0.456088       -12.4108
  32   2.0000      -0.453073       -12.3287
  33   2.0000      -0.440727       -11.9928
  34   2.0000      -0.426981       -11.6187
  35   2.0000      -0.411568       -11.1993
  36   2.0000      -0.401265       -10.9190
  37   2.0000      -0.393431       -10.7058
  38   2.0000      -0.379210       -10.3188
  39   2.0000      -0.370307       -10.0766
  40   2.0000      -0.360253        -9.8030
  41   2.0000      -0.350568        -9.5394
  42   2.0000      -0.345312        -9.3964
  43   2.0000      -0.336608        -9.1596
  44   2.0000      -0.317139        -8.6298
  45   2.0000      -0.308823        -8.4035
  46   2.0000      -0.301287        -8.1984
  47   2.0000      -0.278778        -7.5859
  48   2.0000      -0.263848        -7.1797
  49   2.0000      -0.248600        -6.7648
  50   2.0000      -0.237866        -6.4727
  51   0.0000       0.059232         1.6118
  52   0.0000       0.084392         2.2964
  53   0.0000       0.088299         2.4027
  54   0.0000       0.090934         2.4744
  55   0.0000       0.096323         2.6211

MULLIKEN ATOMIC CHARGES
-----------------------
   0 C :    0.283727
   1 C :   -0.253273
   2 C :   -0.300502
   3 C :   -0.000665
   4 O :   -0.509583
   5 H :    0.140112
   6 H :    0.136309
   7 H :    0.168844
   8 H :    0.137228
   9 H :    0.161295
  10 H :    0.148056
  11 H :    0.137602
  12 C :    0.016517
  13 H :    0.133354
  14 H :    0.148006
  15 O :   -0.517549
  16 C :    0.036763
  17 C :    0.076922
  18 C :   -0.296222
  19 C :   -0.029453
  20 O :   -0.519457
  21 H :    0.165686
  22 O :   -0.598992
  23 H :    0.156609
  24 H :    0.165302
  25 H :    0.148379
  26 H :    0.152580
  27 H :    0.147981
  28 H :    0.364423
Sum of atomic charges:   -0.0000000

LOEWDIN ATOMIC CHARGES
----------------------
   0 C :    0.176425
   1 C :   -0.220030
   2 C :   -0.216924
   3 C :   -0.026837
   4 O :   -0.319954
   5 H :    0.097087
   6 H :    0.109638
   7 H :    0.128789
   8 H :    0.111881
   9 H :    0.118735
  10 H :    0.105774
  11 H :    0.100109
  12 C :   -0.035081
  13 H :    0.097907
  14 H :    0.112825
  15 O :   -0.325303
  16 C :   -0.001019
  17 C :    0.037298
  18 C :   -0.240454
  19 C :   -0.037136
  20 O :   -0.330509
  21 H :    0.113546
  22 O :   -0.412134
  23 H :    0.117980
  24 H :    0.128104
  25 H :    0.114901
  26 H :    0.107683
  27 H :    0.103489
  28 H :    0.283210

  Mayer bond orders larger than 0.100000
B(  0-C ,  1-C ) :   0.9431 B(  0-C ,  4-O ) :   0.9186 B(  0-C ,  5-H ) :   0.9158
B(  0-C , 15-O ) :   0.8384 B(  1-C ,  2-C ) :   0.9564 B(  1-C ,  6-H ) :   0.9381
B(  1-C ,  7-H ) :   0.9305 B(  2-C ,  3-C ) :   0.9542 B(  2-C ,  8-H ) :   0.9456
B(  2-C ,  9-H ) :   0.9440 B(  3-C ,  4-O ) :   0.8409 B(  3-C , 10-H ) :   0.9354
B(  3-C , 11-H ) :   0.9401 B( 12-C , 13-H ) :   0.9090 B( 12-C , 14-H ) :   0.9375
B( 12-C , 15-O ) :   0.8646 B( 12-C , 16-C ) :   0.8866 B( 16-C , 17-C ) :   0.8933
B( 16-C , 20-O ) :   0.8537 B( 16-C , 21-H ) :   0.9158 B( 17-C , 18-C ) :   0.9135
B( 17-C , 22-O ) :   0.8929 B( 17-C , 23-H ) :   0.9319 B( 18-C , 19-C ) :   0.9391
B( 18-C , 24-H ) :   0.9369 B( 18-C , 25-H ) :   0.9334 B( 19-C , 20-O ) :   0.8447
B( 19-C , 26-H ) :   0.9341 B( 19-C , 27-H ) :   0.9376 B( 22-O , 28-H ) :   0.7946

FINAL SINGLE POINT ENERGY      -652.858391852002

DIPOLE MOMENT
-------------
                                X             Y             Z
Electronic contribution:      0.73609      -3.36948      -0.89301
Nuclear contribution   :     -1.28443       4.07337       0.47693
                        -----------------------------------------
Total Dipole Moment    :     -0.54833       0.70389      -0.41607
                        -----------------------------------------
Magnitude (a.u.)       :      0.98451
Magnitude (Debye)      :      2.50241

Rotational constants in cm-1:     0.065203     0.012227     0.011676
Rotational constants in MHz :  1954.743429   366.554783   350.031004

                             ****ORCA TERMINATED NORMALLY****
TOTAL RUN TIME: 0 days 0 hours 20 minutes 22 seconds 41 msec
