                         Program Version 4.2.0 -  RELEASE  -
|  1> # Test redundant internal optimization
|  2> #
|  3> ! RKS B3LYP  Opt TightSCF SmallPrint
|  4>
|  5> %basis
|  6>         Basis "6-31G"
|  7> end
|  8>
|  9> %geom
| 10> Constraints
| 11> { D 4  0  15  12  45.0   C } # D for Dihedral angle
| 12> { D 0  15  12  16  255.0   C } # D for Dihedral angle
| 13> { D 0  4  3  2   C } # D for Dihedral angle
| 14> { D 4  3  2  1   C } # D for Dihedral angle
| 15> { D 3  2  1  0   C } # D for Dihedral angle
| 16> { D 2  1  0  4   C } # D for Dihedral angle
| 17> { D 1  0  4  3   C } # D for Dihedral angle
| 18> { D 16  20  19  18   C } # D for Dihedral angle
| 19> { D 20  19  18  17   C } # D for Dihedral angle
| 20> { D 19  18  17  16   C } # D for Dihedral angle
| 21> { D 18  17  16  20   C } # D for Dihedral angle
| 22> { D 17  16  20  19   C } # D for Dihedral angle
| 23> { D 15  12  16  20   C } # D for Dihedral angle
| 24> end
| 25> end
| 26>
| 27>
| 28> #%pal
| 29> #nprocs 8
| 30> #end
| 31>
| 32> * xyz 0 1
| 33> C  -21.048   26.222   46.251
| 34> C  -20.361   27.558   45.944
| 35> C  -20.329   28.222   47.341
| 36> C  -20.110   27.022   48.296
| 37> O  -20.473   25.807   47.535
| 38> H  -20.833   25.428   45.533
| 39> H  -19.344   27.382   45.576
| 40> H  -20.898   28.157   45.201
| 41> H  -19.543   28.978   47.434
| 42> H  -21.289   28.710   47.548
| 43> H  -20.733   27.082   49.195
| 44> H  -19.064   26.913   48.597
| 45> C  -23.065   27.161   47.638
| 46> H  -22.213   27.688   48.086
| 47> H  -23.826   27.906   47.369
| 48> O  -22.586   26.394   46.375
| 49> C  -23.680   26.224   48.713
| 50> C  -24.824   25.384   48.132
| 51> C  -24.049   24.273   47.385
| 52> C  -22.810   24.042   48.285
| 53> O  -22.693   25.233   49.154
| 54> H  -23.953   26.815   49.589
| 55> H  -25.426   24.958   48.942
| 56> O  -25.763   26.195   47.198
| 57> H  -24.640   23.362   47.246
| 58> H  -23.744   24.628   46.393
| 59> H  -21.886   23.926   47.708
| 60> H  -22.927   23.175   48.942
| 61> H  -25.180   26.632   46.379
| 62> *
| 63>
| 64>                          ****END OF INPUT****
 Total Charge           Charge          ....    0
 Multiplicity           Mult            ....    1
 Number of Electrons    NEL             ....  102
FINAL SINGLE POINT ENERGY      -652.810388262868
FINAL SINGLE POINT ENERGY      -652.839909434335
FINAL SINGLE POINT ENERGY      -652.853976483059
FINAL SINGLE POINT ENERGY      -652.856745275206
FINAL SINGLE POINT ENERGY      -652.857176988420
FINAL SINGLE POINT ENERGY      -652.857258041030
FINAL SINGLE POINT ENERGY      -652.857267313368
                    ***********************HURRAY********************

CARTESIAN COORDINATES (ANGSTROEM)
---------------------------------
  C    -21.107129   26.415554   46.346333
  C    -20.353694   27.691376   45.951138
  C    -20.030738   28.322640   47.336013
  C    -19.777809   27.075928   48.221265
  O    -20.384825   25.932387   47.492422
  H    -21.052520   25.632184   45.588472
  H    -19.431383   27.409439   45.431089
  H    -20.943828   28.341007   45.300342
  H    -19.153436   28.976196   47.298073
  H    -20.870092   28.922121   47.699165
  H    -20.238331   27.133659   49.210539
  H    -18.712975   26.850526   48.329548
  C    -23.165923   27.178369   47.692204
  H    -22.448813   27.777060   48.258897
  H    -23.945040   27.847417   47.309941
  O    -22.539111   26.565922   46.523017
  C    -23.813376   26.177365   48.653208
  C    -24.923906   25.320580   48.019840
  C    -24.109310   24.149982   47.386944
  C    -22.959476   23.956142   48.399857
  O    -22.898673   25.199130   49.212957
  H    -24.200564   26.762944   49.496764
  H    -25.602487   24.957160   48.794845
  O    -25.769760   26.033647   47.083853
  H    -24.716622   23.249367   47.257347
  H    -23.725497   24.472587   46.416332
  H    -21.985124   23.814450   47.928368
  H    -23.152727   23.134885   49.097116
  H    -25.276831   26.176973   46.249111

 Multiplicity           Mult            ....    1
 Number of Electrons    NEL             ....  102
 Basis Dimension        Dim             ....  149

ORBITAL ENERGIES
----------------

  NO   OCC          E(Eh)            E(eV)
   0   2.0000     -19.146735      -521.0091
   1   2.0000     -19.145921      -520.9870
   2   2.0000     -19.134737      -520.6827
   3   2.0000     -19.127428      -520.4838
   4   2.0000     -10.283941      -279.8403
   5   2.0000     -10.230715      -278.3919
   6   2.0000     -10.230706      -278.3917
   7   2.0000     -10.230631      -278.3896
   8   2.0000     -10.224455      -278.2216
   9   2.0000     -10.212509      -277.8965
  10   2.0000     -10.195282      -277.4277
  11   2.0000     -10.191331      -277.3202
  12   2.0000     -10.173772      -276.8424
  13   2.0000      -1.054987       -28.7077
  14   2.0000      -1.021688       -27.8015
  15   2.0000      -1.004037       -27.3212
  16   2.0000      -0.995200       -27.0808
  17   2.0000      -0.790865       -21.5205
  18   2.0000      -0.772546       -21.0220
  19   2.0000      -0.761443       -20.7199
  20   2.0000      -0.732501       -19.9324
  21   2.0000      -0.677045       -18.4233
  22   2.0000      -0.606547       -16.5050
  23   2.0000      -0.602475       -16.3942
  24   2.0000      -0.595378       -16.2011
  25   2.0000      -0.557753       -15.1772
  26   2.0000      -0.526807       -14.3351
  27   2.0000      -0.507110       -13.7992
  28   2.0000      -0.495205       -13.4752
  29   2.0000      -0.488105       -13.2820
  30   2.0000      -0.468074       -12.7369
  31   2.0000      -0.458134       -12.4665
  32   2.0000      -0.436263       -11.8713
  33   2.0000      -0.427974       -11.6458
  34   2.0000      -0.421560       -11.4712
  35   2.0000      -0.412339       -11.2203
  36   2.0000      -0.402715       -10.9584
  37   2.0000      -0.391402       -10.6506
  38   2.0000      -0.383573       -10.4376
  39   2.0000      -0.367413        -9.9978
  40   2.0000      -0.361783        -9.8446
  41   2.0000      -0.354567        -9.6483
  42   2.0000      -0.344480        -9.3738
  43   2.0000      -0.324013        -8.8168
  44   2.0000      -0.316296        -8.6068
  45   2.0000      -0.310389        -8.4461
  46   2.0000      -0.300159        -8.1677
  47   2.0000      -0.266169        -7.2428
  48   2.0000      -0.261220        -7.1082
  49   2.0000      -0.255482        -6.9520
  50   2.0000      -0.227354        -6.1866
  51   0.0000       0.064923         1.7666
  52   0.0000       0.087547         2.3823
  53   0.0000       0.093510         2.5445
  54   0.0000       0.097498         2.6531
  55   0.0000       0.107898         2.9361

MULLIKEN ATOMIC CHARGES
-----------------------
   0 C :    0.308617
   1 C :   -0.266412
   2 C :   -0.321865
   3 C :   -0.013942
   4 O :   -0.499943
   5 H :    0.159899
   6 H :    0.151837
   7 H :    0.152342
   8 H :    0.148277
   9 H :    0.152479
  10 H :    0.163506
  11 H :    0.149162
  12 C :   -0.031442
  13 H :    0.139188
  14 H :    0.151878
  15 O :   -0.548927
  16 C :    0.104184
  17 C :    0.086564
  18 C :   -0.314054
  19 C :   -0.003835
  20 O :   -0.520133
  21 H :    0.140862
  22 H :    0.159081
  23 O :   -0.611286
  24 H :    0.140906
  25 H :    0.160136
  26 H :    0.161713
  27 H :    0.135310
  28 H :    0.365900
Sum of atomic charges:    0.0000000

LOEWDIN ATOMIC CHARGES
----------------------
   0 C :    0.178647
   1 C :   -0.225952
   2 C :   -0.224896
   3 C :   -0.032777
   4 O :   -0.310624
   5 H :    0.109510
   6 H :    0.118661
   7 H :    0.120627
   8 H :    0.117185
   9 H :    0.110074
  10 H :    0.111808
  11 H :    0.106348
  12 C :   -0.048470
  13 H :    0.103433
  14 H :    0.112254
  15 O :   -0.343023
  16 C :    0.012717
  17 C :    0.035932
  18 C :   -0.242265
  19 C :   -0.025979
  20 O :   -0.320882
  21 H :    0.110846
  22 H :    0.114519
  23 O :   -0.414253
  24 H :    0.113425
  25 H :    0.118932
  26 H :    0.112468
  27 H :    0.098517
  28 H :    0.283218

  Mayer bond orders larger than 0.100000
B(  0-C ,  1-C ) :   0.9230 B(  0-C ,  4-O ) :   0.9152 B(  0-C ,  5-H ) :   0.9360
B(  0-C , 15-O ) :   0.8604 B(  1-C ,  2-C ) :   0.9545 B(  1-C ,  6-H ) :   0.9347
B(  1-C ,  7-H ) :   0.9377 B(  2-C ,  3-C ) :   0.9474 B(  2-C ,  8-H ) :   0.9442
B(  2-C ,  9-H ) :   0.9390 B(  3-C ,  4-O ) :   0.8320 B(  3-C , 10-H ) :   0.9283
B(  3-C , 11-H ) :   0.9387 B( 12-C , 13-H ) :   0.9174 B( 12-C , 14-H ) :   0.9192
B( 12-C , 15-O ) :   0.8364 B( 12-C , 16-C ) :   0.8877 B( 16-C , 17-C ) :   0.8882
B( 16-C , 20-O ) :   0.8905 B( 16-C , 21-H ) :   0.9239 B( 17-C , 18-C ) :   0.9335
B( 17-C , 22-H ) :   0.9371 B( 17-C , 23-O ) :   0.8968 B( 18-C , 19-C ) :   0.9446
B( 18-C , 24-H ) :   0.9415 B( 18-C , 25-H ) :   0.9285 B( 19-C , 20-O ) :   0.8318
B( 19-C , 26-H ) :   0.9240 B( 19-C , 27-H ) :   0.9391 B( 23-O , 28-H ) :   0.7924

FINAL SINGLE POINT ENERGY      -652.857266145908

DIPOLE MOMENT
-------------
                                X             Y             Z
Electronic contribution:     -2.87028      -2.13826       0.66759
Nuclear contribution   :      3.74029       2.82034      -1.16917
                        -----------------------------------------
Total Dipole Moment    :      0.87001       0.68208      -0.50158
                        -----------------------------------------
Magnitude (a.u.)       :      1.21397
Magnitude (Debye)      :      3.08568

Rotational constants in cm-1:     0.049924     0.017802     0.016096
Rotational constants in MHz :  1496.694256   533.698084   482.560585

                             ****ORCA TERMINATED NORMALLY****
TOTAL RUN TIME: 0 days 0 hours 29 minutes 53 seconds 878 msec
