                         Program Version 4.2.0 -  RELEASE  -
|  1> # Test redundant internal optimization
|  2> #
|  3> ! RKS B3LYP  Opt TightSCF SmallPrint
|  4>
|  5> %basis
|  6>         Basis "6-31G"
|  7> end
|  8>
|  9> %geom
| 10> Constraints
| 11> { D 4  0  15  12  105.0   C } # D for Dihedral angle
| 12> { D 0  15  12  16  165.0   C } # D for Dihedral angle
| 13> { D 0  4  3  2   C } # D for Dihedral angle
| 14> { D 4  3  2  1   C } # D for Dihedral angle
| 15> { D 3  2  1  0   C } # D for Dihedral angle
| 16> { D 2  1  0  4   C } # D for Dihedral angle
| 17> { D 1  0  4  3   C } # D for Dihedral angle
| 18> { D 16  20  19  18   C } # D for Dihedral angle
| 19> { D 20  19  18  17   C } # D for Dihedral angle
| 20> { D 19  18  17  16   C } # D for Dihedral angle
| 21> { D 18  17  16  20   C } # D for Dihedral angle
| 22> { D 17  16  20  19   C } # D for Dihedral angle
| 23> { D 15  12  16  20   C } # D for Dihedral angle
| 24> end
| 25> end
| 26>
| 27>
| 28> #%pal
| 29> #nprocs 8
| 30> #end
| 31>
| 32> * xyz 0 1
| 33> C  -21.048   26.222   46.251
| 34> C  -20.361   27.558   45.944
| 35> C  -20.329   28.222   47.341
| 36> C  -20.110   27.022   48.296
| 37> O  -20.473   25.807   47.535
| 38> H  -20.833   25.428   45.533
| 39> H  -19.344   27.382   45.576
| 40> H  -20.898   28.157   45.201
| 41> H  -19.543   28.978   47.434
| 42> H  -21.289   28.710   47.548
| 43> H  -20.733   27.082   49.195
| 44> H  -19.064   26.913   48.597
| 45> C  -23.085   27.864   46.420
| 46> H  -22.860   28.293   47.405
| 47> H  -22.573   28.467   45.659
| 48> O  -22.586   26.394   46.375
| 49> C  -24.613   27.988   46.171
| 50> C  -25.416   27.314   47.290
| 51> C  -25.355   28.383   48.407
| 52> C  -25.397   29.717   47.620
| 53> O  -25.029   29.394   46.225
| 54> H  -24.843   27.625   45.168
| 55> H  -26.450   27.152   46.965
| 56> O  -24.821   25.948   47.730
| 57> H  -26.178   28.295   49.124
| 58> H  -24.415   28.292   48.964
| 59> H  -24.694   30.458   48.014
| 60> H  -26.398   30.156   47.596
| 61> H  -23.786   26.086   48.058
| 62> *
| 63>
| 64>                          ****END OF INPUT****
 Total Charge           Charge          ....    0
 Multiplicity           Mult            ....    1
 Number of Electrons    NEL             ....  102
FINAL SINGLE POINT ENERGY      -652.813784847385
FINAL SINGLE POINT ENERGY      -652.840456548387
FINAL SINGLE POINT ENERGY      -652.853498238172
FINAL SINGLE POINT ENERGY      -652.857209245790
FINAL SINGLE POINT ENERGY      -652.859051542074
FINAL SINGLE POINT ENERGY      -652.860129509531
FINAL SINGLE POINT ENERGY      -652.860636352843
FINAL SINGLE POINT ENERGY      -652.860755400709
FINAL SINGLE POINT ENERGY      -652.860777318742
FINAL SINGLE POINT ENERGY      -652.860780409731
                    ***********************HURRAY********************

CARTESIAN COORDINATES (ANGSTROEM)
---------------------------------
  C    -21.189335   26.359230   46.373731
  C    -20.221344   27.457651   45.923917
  C    -19.925181   28.194912   47.258639
  C    -19.939831   27.042898   48.291974
  O    -20.649373   25.916408   47.632750
  H    -21.201682   25.478134   45.731720
  H    -19.316625   26.973520   45.542496
  H    -20.613684   28.109404   45.139292
  H    -18.962343   28.714151   47.237612
  H    -20.696648   28.938829   47.476001
  H    -20.463011   27.297884   49.217658
  H    -18.936416   26.683189   48.534814
  C    -23.100789   28.086333   46.503254
  H    -22.898643   28.557017   47.473740
  H    -22.640841   28.690922   45.715374
  O    -22.597470   26.712550   46.485083
  C    -24.609974   28.001211   46.248925
  C    -25.416187   27.254440   47.326491
  C    -25.536635   28.338394   48.438296
  C    -25.659543   29.649696   47.636733
  O    -25.164815   29.352692   46.257530
  H    -24.780432   27.589790   45.250474
  H    -26.412668   27.042511   46.922140
  O    -24.869144   26.009488   47.792200
  H    -26.395733   28.154933   49.088957
  H    -24.634367   28.313496   49.059299
  H    -25.067441   30.471775   48.050632
  H    -26.695625   29.982258   47.527875
  H    -23.928219   25.933285   47.504393

 Multiplicity           Mult            ....    1
 Number of Electrons    NEL             ....  102
 Basis Dimension        Dim             ....  149

ORBITAL ENERGIES
----------------

  NO   OCC          E(Eh)            E(eV)
   0   2.0000     -19.164456      -521.4914
   1   2.0000     -19.150966      -521.1243
   2   2.0000     -19.141009      -520.8533
   3   2.0000     -19.108162      -519.9595
   4   2.0000     -10.293785      -280.1081
   5   2.0000     -10.242979      -278.7256
   6   2.0000     -10.237367      -278.5729
   7   2.0000     -10.234325      -278.4902
   8   2.0000     -10.228024      -278.3187
   9   2.0000     -10.226624      -278.2806
  10   2.0000     -10.205310      -277.7006
  11   2.0000     -10.203237      -277.6442
  12   2.0000     -10.178063      -276.9592
  13   2.0000      -1.065073       -28.9821
  14   2.0000      -1.025941       -27.9173
  15   2.0000      -1.009228       -27.4625
  16   2.0000      -0.988806       -26.9068
  17   2.0000      -0.801184       -21.8013
  18   2.0000      -0.779487       -21.2109
  19   2.0000      -0.767712       -20.8905
  20   2.0000      -0.739148       -20.1132
  21   2.0000      -0.685148       -18.6438
  22   2.0000      -0.615460       -16.7475
  23   2.0000      -0.601299       -16.3622
  24   2.0000      -0.596120       -16.2213
  25   2.0000      -0.577908       -15.7257
  26   2.0000      -0.528410       -14.3788
  27   2.0000      -0.519957       -14.1487
  28   2.0000      -0.513901       -13.9839
  29   2.0000      -0.486719       -13.2443
  30   2.0000      -0.477191       -12.9850
  31   2.0000      -0.463547       -12.6138
  32   2.0000      -0.440386       -11.9835
  33   2.0000      -0.436820       -11.8865
  34   2.0000      -0.431561       -11.7434
  35   2.0000      -0.424499       -11.5512
  36   2.0000      -0.411961       -11.2100
  37   2.0000      -0.392836       -10.6896
  38   2.0000      -0.387259       -10.5379
  39   2.0000      -0.373624       -10.1668
  40   2.0000      -0.367313        -9.9951
  41   2.0000      -0.362705        -9.8697
  42   2.0000      -0.348148        -9.4736
  43   2.0000      -0.340905        -9.2765
  44   2.0000      -0.322950        -8.7879
  45   2.0000      -0.312520        -8.5041
  46   2.0000      -0.293690        -7.9917
  47   2.0000      -0.275162        -7.4875
  48   2.0000      -0.267997        -7.2926
  49   2.0000      -0.248931        -6.7738
  50   2.0000      -0.238602        -6.4927
  51   0.0000       0.054270         1.4768
  52   0.0000       0.067303         1.8314
  53   0.0000       0.088015         2.3950
  54   0.0000       0.095009         2.5853
  55   0.0000       0.102765         2.7964

MULLIKEN ATOMIC CHARGES
-----------------------
   0 C :    0.321130
   1 C :   -0.300469
   2 C :   -0.311737
   3 C :   -0.009866
   4 O :   -0.495152
   5 H :    0.172099
   6 H :    0.164499
   7 H :    0.154001
   8 H :    0.151245
   9 H :    0.152489
  10 H :    0.151984
  11 H :    0.152149
  12 C :   -0.011501
  13 H :    0.139307
  14 H :    0.155537
  15 O :   -0.568167
  16 C :    0.056549
  17 C :    0.122681
  18 C :   -0.299810
  19 C :   -0.022423
  20 O :   -0.523948
  21 H :    0.158951
  22 H :    0.145813
  23 O :   -0.639005
  24 H :    0.153099
  25 H :    0.142505
  26 H :    0.139257
  27 H :    0.149448
  28 H :    0.399334
Sum of atomic charges:   -0.0000000

LOEWDIN ATOMIC CHARGES
----------------------
   0 C :    0.180187
   1 C :   -0.228793
   2 C :   -0.221432
   3 C :   -0.030668
   4 O :   -0.313395
   5 H :    0.115038
   6 H :    0.127210
   7 H :    0.119421
   8 H :    0.119282
   9 H :    0.111319
  10 H :    0.107401
  11 H :    0.107715
  12 C :   -0.043289
  13 H :    0.094996
  14 H :    0.108243
  15 O :   -0.335378
  16 C :    0.020151
  17 C :    0.042867
  18 C :   -0.237079
  19 C :   -0.033313
  20 O :   -0.325938
  21 H :    0.115699
  22 H :    0.104942
  23 O :   -0.433623
  24 H :    0.122050
  25 H :    0.109493
  26 H :    0.100157
  27 H :    0.106375
  28 H :    0.290360

  Mayer bond orders larger than 0.100000
B(  0-C ,  1-C ) :   0.9365 B(  0-C ,  4-O ) :   0.9257 B(  0-C ,  5-H ) :   0.9322
B(  0-C , 15-O ) :   0.8310 B(  1-C ,  2-C ) :   0.9493 B(  1-C ,  6-H ) :   0.9330
B(  1-C ,  7-H ) :   0.9297 B(  2-C ,  3-C ) :   0.9484 B(  2-C ,  8-H ) :   0.9445
B(  2-C ,  9-H ) :   0.9398 B(  3-C ,  4-O ) :   0.8393 B(  3-C , 10-H ) :   0.9343
B(  3-C , 11-H ) :   0.9387 B( 12-C , 13-H ) :   0.9141 B( 12-C , 14-H ) :   0.9167
B( 12-C , 15-O ) :   0.7887 B( 12-C , 16-C ) :   0.8996 B( 16-C , 17-C ) :   0.9122
B( 16-C , 20-O ) :   0.8555 B( 16-C , 21-H ) :   0.9295 B( 17-C , 18-C ) :   0.8999
B( 17-C , 22-H ) :   0.9297 B( 17-C , 23-O ) :   0.9428 B( 18-C , 19-C ) :   0.9380
B( 18-C , 24-H ) :   0.9443 B( 18-C , 25-H ) :   0.9436 B( 19-C , 20-O ) :   0.8322
B( 19-C , 26-H ) :   0.9345 B( 19-C , 27-H ) :   0.9386 B( 23-O , 28-H ) :   0.7195

FINAL SINGLE POINT ENERGY      -652.860781301777

DIPOLE MOMENT
-------------
                                X             Y             Z
Electronic contribution:     -2.67786      -4.46354      -1.94251
Nuclear contribution   :      4.00907       5.71262       1.80185
                        -----------------------------------------
Total Dipole Moment    :      1.33121       1.24908      -0.14066
                        -----------------------------------------
Magnitude (a.u.)       :      1.83088
Magnitude (Debye)      :      4.65372

Rotational constants in cm-1:     0.049250     0.014677     0.013626
Rotational constants in MHz :  1476.484700   439.996705   408.508869

                             ****ORCA TERMINATED NORMALLY****
TOTAL RUN TIME: 0 days 0 hours 31 minutes 59 seconds 198 msec
