                         Program Version 4.2.0 -  RELEASE  -
|  1> # Test redundant internal optimization
|  2> #
|  3> ! RKS B3LYP  Opt TightSCF SmallPrint
|  4>
|  5> %basis
|  6>         Basis "6-31G"
|  7> end
|  8>
|  9> %geom
| 10> Constraints
| 11> { D 4  0  15  12  300.0   C } # D for Dihedral angle
| 12> { D 0  15  12  16  150.0   C } # D for Dihedral angle
| 13> { D 0  4  3  2   C } # D for Dihedral angle
| 14> { D 4  3  2  1   C } # D for Dihedral angle
| 15> { D 3  2  1  0   C } # D for Dihedral angle
| 16> { D 2  1  0  4   C } # D for Dihedral angle
| 17> { D 1  0  4  3   C } # D for Dihedral angle
| 18> { D 16  20  19  18   C } # D for Dihedral angle
| 19> { D 20  19  18  17   C } # D for Dihedral angle
| 20> { D 19  18  17  16   C } # D for Dihedral angle
| 21> { D 18  17  16  20   C } # D for Dihedral angle
| 22> { D 17  16  20  19   C } # D for Dihedral angle
| 23> { D 15  12  16  20   C } # D for Dihedral angle
| 24> end
| 25> end
| 26>
| 27>
| 28> #%pal
| 29> #nprocs 8
| 30> #end
| 31>
| 32> * xyz 0 1
| 33> C  -21.048   26.222   46.251
| 34> C  -20.361   27.558   45.944
| 35> C  -20.329   28.222   47.341
| 36> C  -20.110   27.022   48.296
| 37> O  -20.473   25.807   47.535
| 38> H  -20.833   25.428   45.533
| 39> H  -19.344   27.382   45.576
| 40> H  -20.898   28.157   45.201
| 41> H  -19.543   28.978   47.434
| 42> H  -21.289   28.710   47.548
| 43> H  -20.733   27.082   49.195
| 44> H  -19.064   26.913   48.597
| 45> C  -23.362   25.116   46.798
| 46> H  -23.644   24.551   45.901
| 47> H  -22.730   24.473   47.424
| 48> O  -22.586   26.394   46.375
| 49> C  -24.653   25.436   47.601
| 50> C  -25.329   24.154   48.100
| 51> C  -24.464   23.802   49.333
| 52> C  -24.092   25.192   49.909
| 53> O  -24.325   26.171   48.827
| 54> H  -25.296   26.083   47.001
| 55> H  -26.362   24.365   48.399
| 56> O  -25.350   23.022   47.037
| 57> H  -24.994   23.178   50.060
| 58> H  -23.563   23.261   49.020
| 59> H  -23.044   25.248   50.225
| 60> H  -24.731   25.480   50.749
| 61> H  -24.326   22.792   46.722
| 62> *
| 63>
| 64>                          ****END OF INPUT****
 Total Charge           Charge          ....    0
 Multiplicity           Mult            ....    1
 Number of Electrons    NEL             ....  102
FINAL SINGLE POINT ENERGY      -652.832222014406
FINAL SINGLE POINT ENERGY      -652.857646415022
FINAL SINGLE POINT ENERGY      -652.862681757121
FINAL SINGLE POINT ENERGY      -652.863552947119
FINAL SINGLE POINT ENERGY      -652.863702190493
FINAL SINGLE POINT ENERGY      -652.863737307876
FINAL SINGLE POINT ENERGY      -652.863744713001
FINAL SINGLE POINT ENERGY      -652.863746454309
                    ***********************HURRAY********************

CARTESIAN COORDINATES (ANGSTROEM)
---------------------------------
  C    -21.055109   26.164160   46.219439
  C    -20.524665   27.580680   45.999274
  C    -20.550379   28.151465   47.433815
  C    -20.191596   26.931412   48.308530
  O    -20.432524   25.734940   47.456544
  H    -20.788626   25.415982   45.465814
  H    -19.502067   27.529011   45.608125
  H    -21.146857   28.144153   45.300987
  H    -19.848807   28.980292   47.569184
  H    -21.559381   28.500156   47.668561
  H    -20.816062   26.855291   49.201657
  H    -19.135718   26.901322   48.593362
  C    -23.177943   25.057747   46.728443
  H    -23.478130   24.509994   45.823936
  H    -22.504633   24.435017   47.329660
  O    -22.485270   26.281402   46.357582
  C    -24.413786   25.456745   47.530158
  C    -25.235951   24.264272   48.048857
  C    -24.453046   23.873140   49.337167
  C    -23.969664   25.239003   49.871321
  O    -24.062880   26.197907   48.739974
  H    -25.013040   26.142947   46.924935
  H    -26.243693   24.600706   48.301599
  O    -25.438899   23.185577   47.103638
  H    -25.078466   23.332115   50.052604
  H    -23.607353   23.225802   49.069652
  H    -22.936271   25.212074   50.230365
  H    -24.612299   25.623100   50.669180
  H    -24.612884   22.672585   46.987637

 Multiplicity           Mult            ....    1
 Number of Electrons    NEL             ....  102
 Basis Dimension        Dim             ....  149

ORBITAL ENERGIES
----------------

  NO   OCC          E(Eh)            E(eV)
   0   2.0000     -19.148560      -521.0588
   1   2.0000     -19.138390      -520.7821
   2   2.0000     -19.137829      -520.7668
   3   2.0000     -19.135734      -520.7098
   4   2.0000     -10.274603      -279.5862
   5   2.0000     -10.243602      -278.7426
   6   2.0000     -10.228713      -278.3374
   7   2.0000     -10.227894      -278.3151
   8   2.0000     -10.223739      -278.2021
   9   2.0000     -10.220325      -278.1092
  10   2.0000     -10.193960      -277.3918
  11   2.0000     -10.179982      -277.0114
  12   2.0000     -10.177460      -276.9428
  13   2.0000      -1.051946       -28.6249
  14   2.0000      -1.031604       -28.0714
  15   2.0000      -1.013410       -27.5763
  16   2.0000      -0.988137       -26.8886
  17   2.0000      -0.785714       -21.3804
  18   2.0000      -0.779676       -21.2161
  19   2.0000      -0.763251       -20.7691
  20   2.0000      -0.726121       -19.7588
  21   2.0000      -0.675674       -18.3860
  22   2.0000      -0.609652       -16.5895
  23   2.0000      -0.593763       -16.1571
  24   2.0000      -0.585190       -15.9238
  25   2.0000      -0.574861       -15.6428
  26   2.0000      -0.528406       -14.3787
  27   2.0000      -0.509660       -13.8686
  28   2.0000      -0.491221       -13.3668
  29   2.0000      -0.484909       -13.1950
  30   2.0000      -0.470990       -12.8163
  31   2.0000      -0.455954       -12.4071
  32   2.0000      -0.439549       -11.9607
  33   2.0000      -0.434826       -11.8322
  34   2.0000      -0.424012       -11.5380
  35   2.0000      -0.412538       -11.2257
  36   2.0000      -0.398961       -10.8563
  37   2.0000      -0.395091       -10.7510
  38   2.0000      -0.376961       -10.2576
  39   2.0000      -0.371613       -10.1121
  40   2.0000      -0.352343        -9.5877
  41   2.0000      -0.348086        -9.4719
  42   2.0000      -0.341202        -9.2846
  43   2.0000      -0.329868        -8.9762
  44   2.0000      -0.325967        -8.8700
  45   2.0000      -0.313360        -8.5270
  46   2.0000      -0.293791        -7.9945
  47   2.0000      -0.270355        -7.3567
  48   2.0000      -0.262117        -7.1326
  49   2.0000      -0.249937        -6.8011
  50   2.0000      -0.240226        -6.5369
  51   0.0000       0.052563         1.4303
  52   0.0000       0.073844         2.0094
  53   0.0000       0.093487         2.5439
  54   0.0000       0.102610         2.7922
  55   0.0000       0.105205         2.8628

MULLIKEN ATOMIC CHARGES
-----------------------
   0 C :    0.284096
   1 C :   -0.260485
   2 C :   -0.297757
   3 C :   -0.006195
   4 O :   -0.517733
   5 H :    0.138951
   6 H :    0.140736
   7 H :    0.158621
   8 H :    0.136271
   9 H :    0.178026
  10 H :    0.153802
  11 H :    0.138553
  12 C :   -0.018039
  13 H :    0.130091
  14 H :    0.148831
  15 O :   -0.514974
  16 C :    0.094179
  17 C :    0.082034
  18 C :   -0.329876
  19 C :   -0.010974
  20 O :   -0.509620
  21 H :    0.164195
  22 H :    0.167441
  23 O :   -0.598909
  24 H :    0.157937
  25 H :    0.139497
  26 H :    0.146662
  27 H :    0.148498
  28 H :    0.356140
Sum of atomic charges:   -0.0000000

LOEWDIN ATOMIC CHARGES
----------------------
   0 C :    0.172904
   1 C :   -0.213922
   2 C :   -0.215504
   3 C :   -0.027277
   4 O :   -0.334273
   5 H :    0.094254
   6 H :    0.111728
   7 H :    0.125172
   8 H :    0.111435
   9 H :    0.127232
  10 H :    0.107928
  11 H :    0.100596
  12 C :   -0.057148
  13 H :    0.097275
  14 H :    0.104121
  15 O :   -0.318008
  16 C :    0.022057
  17 C :    0.034941
  18 C :   -0.242934
  19 C :   -0.030528
  20 O :   -0.317038
  21 H :    0.119222
  22 H :    0.119360
  23 O :   -0.407199
  24 H :    0.122472
  25 H :    0.106703
  26 H :    0.103364
  27 H :    0.105181
  28 H :    0.277884

  Mayer bond orders larger than 0.100000
B(  0-C ,  1-C ) :   0.9520 B(  0-C ,  4-O ) :   0.8985 B(  0-C ,  5-H ) :   0.9198
B(  0-C , 15-O ) :   0.8669 B(  1-C ,  2-C ) :   0.9558 B(  1-C ,  6-H ) :   0.9409
B(  1-C ,  7-H ) :   0.9358 B(  2-C ,  3-C ) :   0.9579 B(  2-C ,  8-H ) :   0.9452
B(  2-C ,  9-H ) :   0.9392 B(  3-C ,  4-O ) :   0.8313 B(  3-C , 10-H ) :   0.9326
B(  3-C , 11-H ) :   0.9404 B( 12-C , 13-H ) :   0.9094 B( 12-C , 14-H ) :   0.9088
B( 12-C , 15-O ) :   0.8355 B( 12-C , 16-C ) :   0.9074 B( 16-C , 17-C ) :   0.8760
B( 16-C , 20-O ) :   0.8664 B( 16-C , 21-H ) :   0.9301 B( 17-C , 18-C ) :   0.9226
B( 17-C , 22-H ) :   0.9333 B( 17-C , 23-O ) :   0.8980 B( 18-C , 19-C ) :   0.9404
B( 18-C , 24-H ) :   0.9420 B( 18-C , 25-H ) :   0.9395 B( 19-C , 20-O ) :   0.8506
B( 19-C , 26-H ) :   0.9292 B( 19-C , 27-H ) :   0.9376 B( 23-O , 28-H ) :   0.7980

FINAL SINGLE POINT ENERGY      -652.863746708391

DIPOLE MOMENT
-------------
                                X             Y             Z
Electronic contribution:     -2.72595      -1.44464      -2.24515
Nuclear contribution   :      3.33635       1.16367       2.64568
                        -----------------------------------------
Total Dipole Moment    :      0.61040      -0.28098       0.40052
                        -----------------------------------------
Magnitude (a.u.)       :      0.78227
Magnitude (Debye)      :      1.98837

Rotational constants in cm-1:     0.052149     0.015113     0.013569
Rotational constants in MHz :  1563.395366   453.071961   406.784363

                             ****ORCA TERMINATED NORMALLY****
TOTAL RUN TIME: 0 days 0 hours 31 minutes 35 seconds 78 msec
