                         Program Version 4.2.0 -  RELEASE  -
|  1> # Test redundant internal optimization
|  2> #
|  3> ! RKS B3LYP  Opt TightSCF SmallPrint
|  4>
|  5> %basis
|  6>         Basis "6-31G"
|  7> end
|  8>
|  9> %geom
| 10> Constraints
| 11> { D 4  0  15  12  135.0   C } # D for Dihedral angle
| 12> { D 0  15  12  16  45.0   C } # D for Dihedral angle
| 13> { D 0  4  3  2   C } # D for Dihedral angle
| 14> { D 4  3  2  1   C } # D for Dihedral angle
| 15> { D 3  2  1  0   C } # D for Dihedral angle
| 16> { D 2  1  0  4   C } # D for Dihedral angle
| 17> { D 1  0  4  3   C } # D for Dihedral angle
| 18> { D 16  20  19  18   C } # D for Dihedral angle
| 19> { D 20  19  18  17   C } # D for Dihedral angle
| 20> { D 19  18  17  16   C } # D for Dihedral angle
| 21> { D 18  17  16  20   C } # D for Dihedral angle
| 22> { D 17  16  20  19   C } # D for Dihedral angle
| 23> { D 15  12  16  20   C } # D for Dihedral angle
| 24> end
| 25> end
| 26>
| 27>
| 28> #%pal
| 29> #nprocs 8
| 30> #end
| 31>
| 32> * xyz 0 1
| 33> C  -21.048   26.222   46.251
| 34> C  -20.361   27.558   45.944
| 35> C  -20.329   28.222   47.341
| 36> C  -20.110   27.022   48.296
| 37> O  -20.473   25.807   47.535
| 38> H  -20.833   25.428   45.533
| 39> H  -19.344   27.382   45.576
| 40> H  -20.898   28.157   45.201
| 41> H  -19.543   28.978   47.434
| 42> H  -21.289   28.710   47.548
| 43> H  -20.733   27.082   49.195
| 44> H  -19.064   26.913   48.597
| 45> C  -23.162   27.680   45.721
| 46> H  -24.251   27.584   45.632
| 47> H  -22.944   28.558   46.342
| 48> O  -22.586   26.394   46.375
| 49> C  -22.578   27.946   44.305
| 50> C  -22.981   26.844   43.320
| 51> C  -24.431   27.253   42.968
| 52> C  -24.373   28.802   42.983
| 53> O  -23.154   29.169   43.735
| 54> H  -21.502   28.108   44.387
| 55> O  -22.075   26.898   42.060
| 56> H  -22.916   25.838   43.748
| 57> H  -24.761   26.858   42.002
| 58> H  -25.123   26.885   43.735
| 59> H  -25.244   29.249   43.471
| 60> H  -24.273   29.225   41.980
| 61> H  -22.124   27.897   41.613
| 62> *
| 63>
| 64>                          ****END OF INPUT****
 Total Charge           Charge          ....    0
 Multiplicity           Mult            ....    1
 Number of Electrons    NEL             ....  102
FINAL SINGLE POINT ENERGY      -652.778724016579
FINAL SINGLE POINT ENERGY      -652.825424069928
FINAL SINGLE POINT ENERGY      -652.843902099285
FINAL SINGLE POINT ENERGY      -652.846709425190
FINAL SINGLE POINT ENERGY      -652.847173725242
FINAL SINGLE POINT ENERGY      -652.847273598888
FINAL SINGLE POINT ENERGY      -652.847281886994
FINAL SINGLE POINT ENERGY      -652.847284157501
                    ***********************HURRAY********************

CARTESIAN COORDINATES (ANGSTROEM)
---------------------------------
  C    -21.042358   26.249267   46.355469
  C    -20.026135   27.353252   46.049722
  C    -20.040648   28.185305   47.363860
  C    -20.250998   27.095240   48.439196
  O    -20.772953   25.910563   47.725990
  H    -20.914395   25.333479   45.776795
  H    -19.048226   26.873902   45.921982
  H    -20.220322   27.944338   45.158763
  H    -19.113369   28.746373   47.511190
  H    -20.871826   28.899258   47.356596
  H    -20.968504   27.387006   49.210825
  H    -19.314536   26.789922   48.915865
  C    -23.113439   27.715445   45.618314
  H    -24.170058   27.435622   45.633513
  H    -23.006636   28.631822   46.215991
  O    -22.460448   26.598287   46.286511
  C    -22.688263   28.068519   44.184243
  C    -22.962236   26.986994   43.129566
  C    -24.480639   27.174166   42.877084
  C    -24.677797   28.704786   43.014918
  O    -23.487979   29.219168   43.742860
  H    -21.652604   28.398334   44.134161
  O    -22.171704   27.217370   41.931234
  H    -22.703767   25.981661   43.462063
  H    -24.754610   26.797323   41.888467
  H    -25.061756   26.624542   43.624388
  H    -25.578953   28.970299   43.575643
  H    -24.705585   29.215281   42.047657
  H    -22.242257   28.161475   41.675134

 Multiplicity           Mult            ....    1
 Number of Electrons    NEL             ....  102
 Basis Dimension        Dim             ....  149

ORBITAL ENERGIES
----------------

  NO   OCC          E(Eh)            E(eV)
   0   2.0000     -19.151735      -521.1452
   1   2.0000     -19.143104      -520.9104
   2   2.0000     -19.137472      -520.7571
   3   2.0000     -19.135280      -520.6974
   4   2.0000     -10.282535      -279.8020
   5   2.0000     -10.244297      -278.7615
   6   2.0000     -10.238862      -278.6136
   7   2.0000     -10.237029      -278.5637
   8   2.0000     -10.235246      -278.5152
   9   2.0000     -10.225634      -278.2537
  10   2.0000     -10.193349      -277.3751
  11   2.0000     -10.192343      -277.3478
  12   2.0000     -10.192197      -277.3438
  13   2.0000      -1.049164       -28.5492
  14   2.0000      -1.041996       -28.3542
  15   2.0000      -1.011661       -27.5287
  16   2.0000      -0.987733       -26.8776
  17   2.0000      -0.789109       -21.4728
  18   2.0000      -0.785616       -21.3777
  19   2.0000      -0.772244       -21.0138
  20   2.0000      -0.738813       -20.1041
  21   2.0000      -0.681139       -18.5347
  22   2.0000      -0.609677       -16.5902
  23   2.0000      -0.607174       -16.5221
  24   2.0000      -0.602952       -16.4071
  25   2.0000      -0.576095       -15.6763
  26   2.0000      -0.531308       -14.4576
  27   2.0000      -0.508647       -13.8410
  28   2.0000      -0.503870       -13.7110
  29   2.0000      -0.489673       -13.3247
  30   2.0000      -0.477738       -12.9999
  31   2.0000      -0.463830       -12.6214
  32   2.0000      -0.448108       -12.1936
  33   2.0000      -0.441947       -12.0260
  34   2.0000      -0.425244       -11.5715
  35   2.0000      -0.420063       -11.4305
  36   2.0000      -0.407692       -11.0939
  37   2.0000      -0.399392       -10.8680
  38   2.0000      -0.384644       -10.4667
  39   2.0000      -0.374173       -10.1818
  40   2.0000      -0.368818       -10.0360
  41   2.0000      -0.355652        -9.6778
  42   2.0000      -0.352965        -9.6047
  43   2.0000      -0.337423        -9.1818
  44   2.0000      -0.314796        -8.5660
  45   2.0000      -0.311942        -8.4884
  46   2.0000      -0.295866        -8.0509
  47   2.0000      -0.274134        -7.4596
  48   2.0000      -0.266233        -7.2446
  49   2.0000      -0.254375        -6.9219
  50   2.0000      -0.241583        -6.5738
  51   0.0000       0.058018         1.5787
  52   0.0000       0.067864         1.8467
  53   0.0000       0.080764         2.1977
  54   0.0000       0.090822         2.4714
  55   0.0000       0.097519         2.6536

MULLIKEN ATOMIC CHARGES
-----------------------
   0 C :    0.319589
   1 C :   -0.297668
   2 C :   -0.308485
   3 C :   -0.000885
   4 O :   -0.493746
   5 H :    0.155940
   6 H :    0.154384
   7 H :    0.148654
   8 H :    0.145534
   9 H :    0.155773
  10 H :    0.151235
  11 H :    0.144671
  12 C :    0.007464
  13 H :    0.154868
  14 H :    0.142260
  15 O :   -0.542203
  16 C :    0.024851
  17 C :    0.090003
  18 C :   -0.301401
  19 C :   -0.029862
  20 O :   -0.527639
  21 H :    0.166570
  22 O :   -0.603821
  23 H :    0.165727
  24 H :    0.162538
  25 H :    0.156289
  26 H :    0.148551
  27 H :    0.148088
  28 H :    0.362721
Sum of atomic charges:   -0.0000000

LOEWDIN ATOMIC CHARGES
----------------------
   0 C :    0.188202
   1 C :   -0.232135
   2 C :   -0.219006
   3 C :   -0.028606
   4 O :   -0.305735
   5 H :    0.105547
   6 H :    0.121531
   7 H :    0.115029
   8 H :    0.116503
   9 H :    0.112646
  10 H :    0.107386
  11 H :    0.103532
  12 C :   -0.036040
  13 H :    0.115188
  14 H :    0.099782
  15 O :   -0.345910
  16 C :   -0.001261
  17 C :    0.036453
  18 C :   -0.240372
  19 C :   -0.038097
  20 O :   -0.329313
  21 H :    0.110112
  22 O :   -0.415134
  23 H :    0.121895
  24 H :    0.127352
  25 H :    0.119166
  26 H :    0.105652
  27 H :    0.103557
  28 H :    0.282074

  Mayer bond orders larger than 0.100000
B(  0-C ,  1-C ) :   0.9295 B(  0-C ,  4-O ) :   0.9250 B(  0-C ,  5-H ) :   0.9280
B(  0-C , 15-O ) :   0.8447 B(  1-C ,  2-C ) :   0.9497 B(  1-C ,  6-H ) :   0.9321
B(  1-C ,  7-H ) :   0.9175 B(  2-C ,  3-C ) :   0.9518 B(  2-C ,  8-H ) :   0.9455
B(  2-C ,  9-H ) :   0.9432 B(  3-C ,  4-O ) :   0.8399 B(  3-C , 10-H ) :   0.9344
B(  3-C , 11-H ) :   0.9391 B( 12-C , 13-H ) :   0.9352 B( 12-C , 14-H ) :   0.9111
B( 12-C , 15-O ) :   0.8459 B( 12-C , 16-C ) :   0.8772 B( 16-C , 17-C ) :   0.9038
B( 16-C , 20-O ) :   0.8285 B( 16-C , 21-H ) :   0.9098 B( 17-C , 18-C ) :   0.9157
B( 17-C , 22-O ) :   0.8882 B( 17-C , 23-H ) :   0.9286 B( 18-C , 19-C ) :   0.9399
B( 18-C , 24-H ) :   0.9377 B( 18-C , 25-H ) :   0.9324 B( 19-C , 20-O ) :   0.8412
B( 19-C , 26-H ) :   0.9356 B( 19-C , 27-H ) :   0.9378 B( 22-O , 28-H ) :   0.7964

FINAL SINGLE POINT ENERGY      -652.847284187265

DIPOLE MOMENT
-------------
                                X             Y             Z
Electronic contribution:     -0.42674      -2.30502      -0.58832
Nuclear contribution   :      0.36844       3.18201       0.25082
                        -----------------------------------------
Total Dipole Moment    :     -0.05830       0.87699      -0.33750
                        -----------------------------------------
Magnitude (a.u.)       :      0.94149
Magnitude (Debye)      :      2.39309

Rotational constants in cm-1:     0.058096     0.013101     0.012843
Rotational constants in MHz :  1741.666526   392.752312   385.025384

                             ****ORCA TERMINATED NORMALLY****
TOTAL RUN TIME: 0 days 0 hours 25 minutes 35 seconds 989 msec
