                         Program Version 4.2.0 -  RELEASE  -
|  1> # Test redundant internal optimization
|  2> #
|  3> ! RKS B3LYP  Opt TightSCF SmallPrint
|  4>
|  5> %basis
|  6>         Basis "6-31G"
|  7> end
|  8>
|  9> %geom
| 10> Constraints
| 11> { D 4  0  15  12  90.0   C } # D for Dihedral angle
| 12> { D 0  15  12  16  225.0   C } # D for Dihedral angle
| 13> { D 0  4  3  2   C } # D for Dihedral angle
| 14> { D 4  3  2  1   C } # D for Dihedral angle
| 15> { D 3  2  1  0   C } # D for Dihedral angle
| 16> { D 2  1  0  4   C } # D for Dihedral angle
| 17> { D 1  0  4  3   C } # D for Dihedral angle
| 18> { D 16  20  19  18   C } # D for Dihedral angle
| 19> { D 20  19  18  17   C } # D for Dihedral angle
| 20> { D 19  18  17  16   C } # D for Dihedral angle
| 21> { D 18  17  16  20   C } # D for Dihedral angle
| 22> { D 17  16  20  19   C } # D for Dihedral angle
| 23> { D 15  12  16  20   C } # D for Dihedral angle
| 24> end
| 25> end
| 26>
| 27>
| 28> #%pal
| 29> #nprocs 8
| 30> #end
| 31>
| 32> * xyz 0 1
| 33> C  -21.048   26.222   46.251
| 34> C  -20.361   27.558   45.944
| 35> C  -20.329   28.222   47.341
| 36> C  -20.110   27.022   48.296
| 37> O  -20.473   25.807   47.535
| 38> H  -20.833   25.428   45.533
| 39> H  -19.344   27.382   45.576
| 40> H  -20.898   28.157   45.201
| 41> H  -19.543   28.978   47.434
| 42> H  -21.289   28.710   47.548
| 43> H  -20.733   27.082   49.195
| 44> H  -19.064   26.913   48.597
| 45> C  -23.061   27.816   46.783
| 46> H  -22.205   28.387   47.164
| 47> H  -23.470   28.348   45.915
| 48> O  -22.586   26.394   46.375
| 49> C  -24.159   27.789   47.882
| 50> C  -24.685   29.198   48.177
| 51> C  -25.657   29.424   46.995
| 52> C  -26.252   28.014   46.755
| 53> O  -25.338   27.055   47.412
| 54> H  -23.778   27.257   48.756
| 55> O  -25.452   29.209   49.527
| 56> H  -23.891   29.952   48.225
| 57> H  -26.427   30.170   47.215
| 58> H  -25.103   29.765   46.112
| 59> H  -26.326   27.766   45.690
| 60> H  -27.235   27.891   47.217
| 61> H  -26.252   28.461   49.502
| 62> *
| 63>
| 64>                          ****END OF INPUT****
 Total Charge           Charge          ....    0
 Multiplicity           Mult            ....    1
 Number of Electrons    NEL             ....  102
FINAL SINGLE POINT ENERGY      -652.781873241381
FINAL SINGLE POINT ENERGY      -652.824690312820
FINAL SINGLE POINT ENERGY      -652.844533400292
FINAL SINGLE POINT ENERGY      -652.848606615539
FINAL SINGLE POINT ENERGY      -652.849234445305
FINAL SINGLE POINT ENERGY      -652.849370060162
FINAL SINGLE POINT ENERGY      -652.849391227447
FINAL SINGLE POINT ENERGY      -652.849396574812
FINAL SINGLE POINT ENERGY      -652.849395903313
                    ***********************HURRAY********************

CARTESIAN COORDINATES (ANGSTROEM)
---------------------------------
  C    -21.207914   26.386320   46.423238
  C    -20.192585   27.437544   45.945937
  C    -19.821254   28.163128   47.276029
  C    -19.870419   27.004962   48.307153
  O    -20.650915   25.918063   47.674173
  H    -21.229757   25.502440   45.783699
  H    -19.320746   26.916066   45.539343
  H    -20.590274   28.106287   45.177188
  H    -18.827460   28.620215   47.230775
  H    -20.531333   28.957002   47.518161
  H    -20.347031   27.288978   49.250367
  H    -18.876589   26.600859   48.520318
  C    -23.128231   28.041901   46.807499
  H    -22.376003   28.694566   47.261335
  H    -23.475235   28.511794   45.878395
  O    -22.605941   26.725569   46.481128
  C    -24.279644   27.870950   47.799606
  C    -24.958103   29.190056   48.197921
  C    -25.944162   29.408202   47.019020
  C    -26.380479   27.965352   46.660601
  O    -25.369517   27.059242   47.255382
  H    -23.902725   27.331799   48.673557
  O    -25.657731   29.048891   49.464772
  H    -24.266705   30.022135   48.342079
  H    -26.777089   30.045091   47.326729
  H    -25.431223   29.890607   46.179163
  H    -26.423527   27.790841   45.581271
  H    -27.348759   27.699077   47.095646
  H    -26.110649   28.179062   49.482514

 Multiplicity           Mult            ....    1
 Number of Electrons    NEL             ....  102
 Basis Dimension        Dim             ....  149

ORBITAL ENERGIES
----------------

  NO   OCC          E(Eh)            E(eV)
   0   2.0000     -19.140351      -520.8354
   1   2.0000     -19.139375      -520.8089
   2   2.0000     -19.139020      -520.7992
   3   2.0000     -19.138396      -520.7822
   4   2.0000     -10.277998      -279.6785
   5   2.0000     -10.244074      -278.7554
   6   2.0000     -10.235907      -278.5332
   7   2.0000     -10.233324      -278.4629
   8   2.0000     -10.229166      -278.3498
   9   2.0000     -10.228864      -278.3415
  10   2.0000     -10.196721      -277.4669
  11   2.0000     -10.195163      -277.4245
  12   2.0000     -10.190549      -277.2989
  13   2.0000      -1.049392       -28.5554
  14   2.0000      -1.035612       -28.1804
  15   2.0000      -1.006309       -27.3831
  16   2.0000      -0.993985       -27.0477
  17   2.0000      -0.790491       -21.5103
  18   2.0000      -0.786684       -21.4068
  19   2.0000      -0.771031       -20.9808
  20   2.0000      -0.733614       -19.9627
  21   2.0000      -0.680732       -18.5237
  22   2.0000      -0.608183       -16.5495
  23   2.0000      -0.604641       -16.4531
  24   2.0000      -0.599335       -16.3087
  25   2.0000      -0.575696       -15.6655
  26   2.0000      -0.522687       -14.2230
  27   2.0000      -0.516483       -14.0542
  28   2.0000      -0.502292       -13.6681
  29   2.0000      -0.490870       -13.3573
  30   2.0000      -0.475341       -12.9347
  31   2.0000      -0.461621       -12.5614
  32   2.0000      -0.447340       -12.1727
  33   2.0000      -0.442068       -12.0293
  34   2.0000      -0.428654       -11.6643
  35   2.0000      -0.419165       -11.4061
  36   2.0000      -0.403975       -10.9927
  37   2.0000      -0.393497       -10.7076
  38   2.0000      -0.384753       -10.4697
  39   2.0000      -0.373252       -10.1567
  40   2.0000      -0.364992        -9.9320
  41   2.0000      -0.360808        -9.8181
  42   2.0000      -0.349077        -9.4989
  43   2.0000      -0.332508        -9.0480
  44   2.0000      -0.313720        -8.5367
  45   2.0000      -0.307969        -8.3803
  46   2.0000      -0.291306        -7.9269
  47   2.0000      -0.272098        -7.4042
  48   2.0000      -0.269316        -7.3285
  49   2.0000      -0.253271        -6.8919
  50   2.0000      -0.239632        -6.5207
  51   0.0000       0.061389         1.6705
  52   0.0000       0.074570         2.0291
  53   0.0000       0.082191         2.2365
  54   0.0000       0.095137         2.5888
  55   0.0000       0.099745         2.7142

MULLIKEN ATOMIC CHARGES
-----------------------
   0 C :    0.303420
   1 C :   -0.289984
   2 C :   -0.315535
   3 C :   -0.007663
   4 O :   -0.498503
   5 H :    0.168392
   6 H :    0.160271
   7 H :    0.146640
   8 H :    0.145857
   9 H :    0.149155
  10 H :    0.144674
  11 H :    0.147992
  12 C :   -0.007823
  13 H :    0.121592
  14 H :    0.135607
  15 O :   -0.508505
  16 C :    0.078177
  17 C :    0.075390
  18 C :   -0.300202
  19 C :   -0.025769
  20 O :   -0.506138
  21 H :    0.170420
  22 O :   -0.603408
  23 H :    0.146665
  24 H :    0.165116
  25 H :    0.141993
  26 H :    0.149662
  27 H :    0.144462
  28 H :    0.368044
Sum of atomic charges:   -0.0000000

LOEWDIN ATOMIC CHARGES
----------------------
   0 C :    0.175569
   1 C :   -0.230737
   2 C :   -0.223938
   3 C :   -0.033547
   4 O :   -0.319661
   5 H :    0.113366
   6 H :    0.124887
   7 H :    0.116625
   8 H :    0.115940
   9 H :    0.105632
  10 H :    0.102969
  11 H :    0.105008
  12 C :   -0.042479
  13 H :    0.096173
  14 H :    0.099097
  15 O :   -0.309170
  16 C :    0.016663
  17 C :    0.033142
  18 C :   -0.242556
  19 C :   -0.037577
  20 O :   -0.317070
  21 H :    0.122331
  22 O :   -0.414941
  23 H :    0.112159
  24 H :    0.127363
  25 H :    0.111340
  26 H :    0.105892
  27 H :    0.102333
  28 H :    0.285186

  Mayer bond orders larger than 0.100000
B(  0-C ,  1-C ) :   0.9196 B(  0-C ,  4-O ) :   0.8975 B(  0-C ,  5-H ) :   0.9353
B(  0-C , 15-O ) :   0.9126 B(  1-C ,  2-C ) :   0.9537 B(  1-C ,  6-H ) :   0.9351
B(  1-C ,  7-H ) :   0.9365 B(  2-C ,  3-C ) :   0.9455 B(  2-C ,  8-H ) :   0.9446
B(  2-C ,  9-H ) :   0.9356 B(  3-C ,  4-O ) :   0.8521 B(  3-C , 10-H ) :   0.9340
B(  3-C , 11-H ) :   0.9387 B( 12-C , 13-H ) :   0.8963 B( 12-C , 14-H ) :   0.9282
B( 12-C , 15-O ) :   0.8412 B( 12-C , 16-C ) :   0.8937 B( 16-C , 17-C ) :   0.8980
B( 16-C , 20-O ) :   0.8690 B( 16-C , 21-H ) :   0.9234 B( 17-C , 18-C ) :   0.9105
B( 17-C , 22-O ) :   0.8933 B( 17-C , 23-H ) :   0.9331 B( 18-C , 19-C ) :   0.9410
B( 18-C , 24-H ) :   0.9367 B( 18-C , 25-H ) :   0.9339 B( 19-C , 20-O ) :   0.8515
B( 19-C , 26-H ) :   0.9341 B( 19-C , 27-H ) :   0.9379 B( 22-O , 28-H ) :   0.7923

FINAL SINGLE POINT ENERGY      -652.849394204185

DIPOLE MOMENT
-------------
                                X             Y             Z
Electronic contribution:     -2.95206      -5.06971       1.83219
Nuclear contribution   :      3.57785       6.47341      -2.58701
                        -----------------------------------------
Total Dipole Moment    :      0.62579       1.40370      -0.75482
                        -----------------------------------------
Magnitude (a.u.)       :      1.71223
Magnitude (Debye)      :      4.35215

Rotational constants in cm-1:     0.054750     0.012781     0.012086
Rotational constants in MHz :  1641.365835   383.164371   362.339026

                             ****ORCA TERMINATED NORMALLY****
TOTAL RUN TIME: 0 days 0 hours 23 minutes 33 seconds 918 msec
