                         Program Version 4.2.0 -  RELEASE  -
|  1> # Test redundant internal optimization
|  2> #
|  3> ! RKS B3LYP  Opt TightSCF SmallPrint
|  4>
|  5> %basis
|  6>         Basis "6-31G"
|  7> end
|  8>
|  9> %geom
| 10> Constraints
| 11> { D 4  0  15  12  225.0   C } # D for Dihedral angle
| 12> { D 0  15  12  16  105.0   C } # D for Dihedral angle
| 13> { D 0  4  3  2   C } # D for Dihedral angle
| 14> { D 4  3  2  1   C } # D for Dihedral angle
| 15> { D 3  2  1  0   C } # D for Dihedral angle
| 16> { D 2  1  0  4   C } # D for Dihedral angle
| 17> { D 1  0  4  3   C } # D for Dihedral angle
| 18> { D 16  20  19  18   C } # D for Dihedral angle
| 19> { D 20  19  18  17   C } # D for Dihedral angle
| 20> { D 19  18  17  16   C } # D for Dihedral angle
| 21> { D 18  17  16  20   C } # D for Dihedral angle
| 22> { D 17  16  20  19   C } # D for Dihedral angle
| 23> { D 15  12  16  20   C } # D for Dihedral angle
| 24> end
| 25> end
| 26>
| 27>
| 28> #%pal
| 29> #nprocs 8
| 30> #end
| 31>
| 32> * xyz 0 1
| 33> C  -21.048   26.222   46.251
| 34> C  -20.361   27.558   45.944
| 35> C  -20.329   28.222   47.341
| 36> C  -20.110   27.022   48.296
| 37> O  -20.473   25.807   47.535
| 38> H  -20.833   25.428   45.533
| 39> H  -19.344   27.382   45.576
| 40> H  -20.898   28.157   45.201
| 41> H  -19.543   28.978   47.434
| 42> H  -21.289   28.710   47.548
| 43> H  -20.733   27.082   49.195
| 44> H  -19.064   26.913   48.597
| 45> C  -23.415   25.773   45.218
| 46> H  -24.180   26.490   44.895
| 47> H  -22.769   25.550   44.359
| 48> O  -22.586   26.394   46.375
| 49> C  -24.126   24.454   45.629
| 50> C  -25.178   24.704   46.716
| 51> C  -26.359   25.263   45.887
| 52> C  -26.260   24.473   44.558
| 53> O  -24.893   23.912   44.502
| 54> H  -23.374   23.709   45.892
| 55> H  -25.456   23.758   47.195
| 56> O  -24.696   25.688   47.817
| 57> H  -27.326   25.129   46.381
| 58> H  -26.219   26.336   45.710
| 59> H  -26.424   25.106   43.680
| 60> H  -26.956   23.630   44.520
| 61> H  -24.413   26.642   47.359
| 62> *
| 63>
| 64>                          ****END OF INPUT****
 Total Charge           Charge          ....    0
 Multiplicity           Mult            ....    1
 Number of Electrons    NEL             ....  102
FINAL SINGLE POINT ENERGY      -652.830005176329
FINAL SINGLE POINT ENERGY      -652.854266831065
FINAL SINGLE POINT ENERGY      -652.860319736670
FINAL SINGLE POINT ENERGY      -652.862746733118
FINAL SINGLE POINT ENERGY      -652.864217085154
FINAL SINGLE POINT ENERGY      -652.865182458802
FINAL SINGLE POINT ENERGY      -652.865697375420
FINAL SINGLE POINT ENERGY      -652.865833691505
FINAL SINGLE POINT ENERGY      -652.865853925675
FINAL SINGLE POINT ENERGY      -652.865858639264
                    ***********************HURRAY********************

CARTESIAN COORDINATES (ANGSTROEM)
---------------------------------
  C    -21.092162   26.180644   46.195508
  C    -20.385724   27.506866   45.925470
  C    -20.471574   28.201397   47.304841
  C    -20.334288   27.026134   48.294856
  O    -20.638717   25.801149   47.501545
  H    -20.850487   25.364617   45.508852
  H    -19.342951   27.310282   45.649416
  H    -20.859524   28.079712   45.124552
  H    -19.692569   28.956646   47.444049
  H    -21.446013   28.687233   47.412942
  H    -21.032920   27.078181   49.133120
  H    -19.316686   26.902855   48.675540
  C    -23.335498   25.799452   45.129106
  H    -24.032786   26.576176   44.803982
  H    -22.693437   25.533848   44.281146
  O    -22.541162   26.376542   46.222431
  C    -24.072595   24.551698   45.628512
  C    -25.098729   24.812051   46.744259
  C    -26.315905   25.344252   45.934757
  C    -26.247709   24.533628   44.623827
  O    -24.861604   23.981210   44.538432
  H    -23.339173   23.792650   45.917376
  H    -25.360387   23.853265   47.207504
  O    -24.681082   25.711998   47.788964
  H    -27.256089   25.200565   46.474454
  H    -26.186507   26.418771   45.767736
  H    -26.440144   25.135576   43.730162
  H    -26.923903   23.673930   44.622142
  H    -23.804676   26.100673   47.558520

 Multiplicity           Mult            ....    1
 Number of Electrons    NEL             ....  102
 Basis Dimension        Dim             ....  149

ORBITAL ENERGIES
----------------

  NO   OCC          E(Eh)            E(eV)
   0   2.0000     -19.162339      -521.4337
   1   2.0000     -19.151084      -521.1275
   2   2.0000     -19.139677      -520.8171
   3   2.0000     -19.109449      -519.9945
   4   2.0000     -10.293318      -280.0954
   5   2.0000     -10.240729      -278.6644
   6   2.0000     -10.232638      -278.4442
   7   2.0000     -10.232167      -278.4314
   8   2.0000     -10.227992      -278.3178
   9   2.0000     -10.225746      -278.2567
  10   2.0000     -10.194430      -277.4045
  11   2.0000     -10.193165      -277.3701
  12   2.0000     -10.177604      -276.9467
  13   2.0000      -1.065335       -28.9892
  14   2.0000      -1.024469       -27.8772
  15   2.0000      -1.007335       -27.4110
  16   2.0000      -0.989190       -26.9172
  17   2.0000      -0.795532       -21.6475
  18   2.0000      -0.772171       -21.0118
  19   2.0000      -0.766319       -20.8526
  20   2.0000      -0.737329       -20.0637
  21   2.0000      -0.679772       -18.4975
  22   2.0000      -0.608020       -16.5451
  23   2.0000      -0.601930       -16.3793
  24   2.0000      -0.594794       -16.1852
  25   2.0000      -0.579304       -15.7637
  26   2.0000      -0.528495       -14.3811
  27   2.0000      -0.522773       -14.2254
  28   2.0000      -0.497525       -13.5383
  29   2.0000      -0.488136       -13.2829
  30   2.0000      -0.471832       -12.8392
  31   2.0000      -0.457715       -12.4551
  32   2.0000      -0.450703       -12.2642
  33   2.0000      -0.434932       -11.8351
  34   2.0000      -0.425834       -11.5875
  35   2.0000      -0.412780       -11.2323
  36   2.0000      -0.409052       -11.1309
  37   2.0000      -0.384805       -10.4711
  38   2.0000      -0.381854       -10.3908
  39   2.0000      -0.367183        -9.9916
  40   2.0000      -0.364335        -9.9141
  41   2.0000      -0.362806        -9.8725
  42   2.0000      -0.347049        -9.4437
  43   2.0000      -0.341324        -9.2879
  44   2.0000      -0.326166        -8.8754
  45   2.0000      -0.320682        -8.7262
  46   2.0000      -0.287106        -7.8125
  47   2.0000      -0.278754        -7.5853
  48   2.0000      -0.264938        -7.2093
  49   2.0000      -0.243790        -6.6339
  50   2.0000      -0.239507        -6.5173
  51   0.0000       0.056492         1.5372
  52   0.0000       0.080788         2.1983
  53   0.0000       0.090266         2.4563
  54   0.0000       0.098723         2.6864
  55   0.0000       0.104349         2.8395

MULLIKEN ATOMIC CHARGES
-----------------------
   0 C :    0.293447
   1 C :   -0.254609
   2 C :   -0.303697
   3 C :   -0.009477
   4 O :   -0.500939
   5 H :    0.150172
   6 H :    0.148592
   7 H :    0.149119
   8 H :    0.147064
   9 H :    0.164877
  10 H :    0.161219
  11 H :    0.147838
  12 C :   -0.037699
  13 H :    0.157460
  14 H :    0.153568
  15 O :   -0.548898
  16 C :    0.051627
  17 C :    0.130192
  18 C :   -0.307207
  19 C :   -0.017795
  20 O :   -0.521950
  21 H :    0.160387
  22 H :    0.145047
  23 O :   -0.645564
  24 H :    0.150868
  25 H :    0.149977
  26 H :    0.138323
  27 H :    0.150437
  28 H :    0.397620
Sum of atomic charges:    0.0000000

LOEWDIN ATOMIC CHARGES
----------------------
   0 C :    0.179320
   1 C :   -0.222552
   2 C :   -0.216933
   3 C :   -0.026621
   4 O :   -0.308049
   5 H :    0.103337
   6 H :    0.115725
   7 H :    0.119259
   8 H :    0.117124
   9 H :    0.120285
  10 H :    0.112346
  11 H :    0.105881
  12 C :   -0.044865
  13 H :    0.111708
  14 H :    0.109810
  15 O :   -0.343679
  16 C :    0.008647
  17 C :    0.043925
  18 C :   -0.236729
  19 C :   -0.032206
  20 O :   -0.326271
  21 H :    0.114584
  22 H :    0.103475
  23 O :   -0.437036
  24 H :    0.121078
  25 H :    0.112815
  26 H :    0.100433
  27 H :    0.106593
  28 H :    0.288597

  Mayer bond orders larger than 0.100000
B(  0-C ,  1-C ) :   0.9401 B(  0-C ,  4-O ) :   0.9475 B(  0-C ,  5-H ) :   0.9188
B(  0-C , 15-O ) :   0.7927 B(  1-C ,  2-C ) :   0.9538 B(  1-C ,  6-H ) :   0.9343
B(  1-C ,  7-H ) :   0.9379 B(  2-C ,  3-C ) :   0.9539 B(  2-C ,  8-H ) :   0.9445
B(  2-C ,  9-H ) :   0.9433 B(  3-C ,  4-O ) :   0.8279 B(  3-C , 10-H ) :   0.9335
B(  3-C , 11-H ) :   0.9395 B( 12-C , 13-H ) :   0.9337 B( 12-C , 14-H ) :   0.9255
B( 12-C , 15-O ) :   0.7988 B( 12-C , 16-C ) :   0.8887 B( 16-C , 17-C ) :   0.9177
B( 16-C , 20-O ) :   0.8542 B( 16-C , 21-H ) :   0.9297 B( 17-C , 18-C ) :   0.9027
B( 17-C , 22-H ) :   0.9286 B( 17-C , 23-O ) :   0.9327 B( 18-C , 19-C ) :   0.9404
B( 18-C , 24-H ) :   0.9450 B( 18-C , 25-H ) :   0.9423 B( 19-C , 20-O ) :   0.8321
B( 19-C , 26-H ) :   0.9351 B( 19-C , 27-H ) :   0.9383 B( 23-O , 28-H ) :   0.7214

FINAL SINGLE POINT ENERGY      -652.865860028332

DIPOLE MOMENT
-------------
                                X             Y             Z
Electronic contribution:     -0.09839      -4.01514       0.71569
Nuclear contribution   :      0.75965       5.02313      -1.47070
                        -----------------------------------------
Total Dipole Moment    :      0.66126       1.00799      -0.75501
                        -----------------------------------------
Magnitude (a.u.)       :      1.42245
Magnitude (Debye)      :      3.61557

Rotational constants in cm-1:     0.061718     0.013138     0.012201
Rotational constants in MHz :  1850.263827   393.857550   365.791250

                             ****ORCA TERMINATED NORMALLY****
TOTAL RUN TIME: 0 days 0 hours 44 minutes 40 seconds 334 msec
