                         Program Version 4.2.1 -  RELEASE  -
|  1> # Test redundant internal optimization
|  2> #
|  3> ! RKS B3LYP  Opt TightSCF SmallPrint
|  4>
|  5> %basis
|  6>         Basis "6-31G"
|  7> end
|  8>
|  9> %geom
| 10> Constraints
| 11> { D 4  0  19  14  345.0   C } # D for Dihedral angle
| 12> { D 0  19  14  12  135.0   C } # D for Dihedral angle
| 13> { D 0  4  3  2   C } # D for Dihedral angle
| 14> { D 4  3  2  1   C } # D for Dihedral angle
| 15> { D 3  2  1  0   C } # D for Dihedral angle
| 16> { D 2  1  0  4   C } # D for Dihedral angle
| 17> { D 1  0  4  3   C } # D for Dihedral angle
| 18> { D 14  15  16  17   C } # D for Dihedral angle
| 19> { D 15  16  17  12   C } # D for Dihedral angle
| 20> { D 16  17  12  14   C } # D for Dihedral angle
| 21> { D 17  12  14  15   C } # D for Dihedral angle
| 22> { D 12  14  15  16   C } # D for Dihedral angle
| 23> end
| 24> end
| 25>
| 26>
| 27> #%pal
| 28> #nprocs 8
| 29> #end
| 30>
| 31> * xyz 0 1
| 32> C  -21.048   26.222   46.251
| 33> C  -20.361   27.558   45.944
| 34> C  -20.329   28.222   47.341
| 35> C  -20.110   27.022   48.296
| 36> O  -20.473   25.807   47.535
| 37> H  -20.833   25.428   45.533
| 38> H  -19.344   27.382   45.576
| 39> H  -20.898   28.157   45.201
| 40> H  -19.543   28.978   47.434
| 41> H  -21.289   28.710   47.548
| 42> H  -20.733   27.082   49.195
| 43> H  -19.064   26.913   48.597
| 44> C  -24.035   26.764   48.192
| 45> H  -24.263   26.474   49.230
| 46> C  -23.040   25.792   47.547
| 47> C  -23.957   24.603   47.177
| 48> C  -25.289   25.293   46.789
| 49> O  -25.236   26.658   47.357
| 50> H  -23.724   27.809   48.173
| 51> O  -22.472   26.381   46.366
| 52> H  -22.223   25.505   48.217
| 53> H  -23.553   23.990   46.365
| 54> H  -24.100   23.951   48.048
| 55> H  -26.165   24.772   47.190
| 56> H  -25.405   25.399   45.706
| 57> *
| 58>
| 59>                          ****END OF INPUT****
 Total Charge           Charge          ....    0
 Multiplicity           Mult            ....    1
 Number of Electrons    NEL             ....   86
FINAL SINGLE POINT ENERGY      -538.426462969344
FINAL SINGLE POINT ENERGY      -538.430941528254
FINAL SINGLE POINT ENERGY      -538.432327690425
FINAL SINGLE POINT ENERGY      -538.432632051694
FINAL SINGLE POINT ENERGY      -538.432658086940
FINAL SINGLE POINT ENERGY      -538.432667343818
FINAL SINGLE POINT ENERGY      -538.432668543910
                    ***********************HURRAY********************

CARTESIAN COORDINATES (ANGSTROEM)
---------------------------------
  C    -21.001509   26.206009   46.307237
  C    -20.425023   27.578135   45.957662
  C    -20.308419   28.234965   47.351785
  C    -19.937485   27.052359   48.272264
  O    -20.304415   25.820758   47.513361
  H    -20.794126   25.417261   45.578737
  H    -19.439380   27.449211   45.495839
  H    -21.073755   28.129879   45.274500
  H    -19.558639   29.031553   47.380409
  H    -21.273018   28.664599   47.639012
  H    -20.479419   27.054610   49.221999
  H    -18.864331   26.983005   48.470133
  C    -24.105520   26.755451   48.183038
  H    -24.408420   26.481842   49.205642
  C    -23.099278   25.744901   47.631320
  C    -24.022370   24.586917   47.205728
  C    -25.295429   25.309565   46.705918
  O    -25.239546   26.680309   47.261058
  H    -23.737395   27.782713   48.167805
  O    -22.447256   26.320666   46.456570
  H    -22.341438   25.437100   48.355368
  H    -23.554349   23.966455   46.437255
  H    -24.242601   23.953644   48.073753
  H    -26.216823   24.822947   47.044570
  H    -25.317056   25.407144   45.617034

 Multiplicity           Mult            ....    1
 Number of Electrons    NEL             ....   86
 Basis Dimension        Dim             ....  127

ORBITAL ENERGIES
----------------

  NO   OCC          E(Eh)            E(eV)
   0   2.0000     -19.153085      -521.1819
   1   2.0000     -19.135426      -520.7014
   2   2.0000     -19.122303      -520.3443
   3   2.0000     -10.280345      -279.7424
   4   2.0000     -10.234417      -278.4926
   5   2.0000     -10.232435      -278.4387
   6   2.0000     -10.217593      -278.0348
   7   2.0000     -10.214657      -277.9550
   8   2.0000     -10.191269      -277.3185
   9   2.0000     -10.186242      -277.1817
  10   2.0000     -10.179357      -276.9944
  11   2.0000      -1.055968       -28.7344
  12   2.0000      -1.010441       -27.4955
  13   2.0000      -0.986183       -26.8354
  14   2.0000      -0.794092       -21.6083
  15   2.0000      -0.776057       -21.1176
  16   2.0000      -0.739197       -20.1146
  17   2.0000      -0.720156       -19.5964
  18   2.0000      -0.613353       -16.6902
  19   2.0000      -0.601404       -16.3650
  20   2.0000      -0.593519       -16.1505
  21   2.0000      -0.563666       -15.3381
  22   2.0000      -0.523275       -14.2390
  23   2.0000      -0.501921       -13.6580
  24   2.0000      -0.487719       -13.2715
  25   2.0000      -0.480370       -13.0715
  26   2.0000      -0.452506       -12.3133
  27   2.0000      -0.432897       -11.7797
  28   2.0000      -0.430439       -11.7128
  29   2.0000      -0.413813       -11.2604
  30   2.0000      -0.410483       -11.1698
  31   2.0000      -0.379150       -10.3172
  32   2.0000      -0.370950       -10.0941
  33   2.0000      -0.362791        -9.8721
  34   2.0000      -0.361436        -9.8352
  35   2.0000      -0.356104        -9.6901
  36   2.0000      -0.345043        -9.3891
  37   2.0000      -0.333648        -9.0790
  38   2.0000      -0.302578        -8.2336
  39   2.0000      -0.293458        -7.9854
  40   2.0000      -0.268381        -7.3030
  41   2.0000      -0.252005        -6.8574
  42   2.0000      -0.226633        -6.1670
  43   0.0000       0.073110         1.9894
  44   0.0000       0.095597         2.6013
  45   0.0000       0.099257         2.7009
  46   0.0000       0.104958         2.8561
  47   0.0000       0.110404         3.0042

MULLIKEN ATOMIC CHARGES
-----------------------
   0 C :    0.301470
   1 C :   -0.257719
   2 C :   -0.307712
   3 C :   -0.016780
   4 O :   -0.513763
   5 H :    0.150834
   6 H :    0.143538
   7 H :    0.166309
   8 H :    0.147607
   9 H :    0.159649
  10 H :    0.143011
  11 H :    0.152341
  12 C :    0.006365
  13 H :    0.119742
  14 C :    0.050310
  15 C :   -0.289086
  16 C :    0.005942
  17 O :   -0.521788
  18 H :    0.153688
  19 O :   -0.532064
  20 H :    0.162556
  21 H :    0.153840
  22 H :    0.139190
  23 H :    0.129616
  24 H :    0.152905
Sum of atomic charges:    0.0000000

LOEWDIN ATOMIC CHARGES
----------------------
   0 C :    0.182897
   1 C :   -0.217650
   2 C :   -0.218582
   3 C :   -0.031992
   4 O :   -0.321342
   5 H :    0.099862
   6 H :    0.113290
   7 H :    0.128895
   8 H :    0.117468
   9 H :    0.115887
  10 H :    0.101994
  11 H :    0.107855
  12 C :   -0.039899
  13 H :    0.089027
  14 C :    0.032530
  15 C :   -0.231035
  16 C :   -0.028089
  17 O :   -0.331581
  18 H :    0.113529
  19 O :   -0.335510
  20 H :    0.114999
  21 H :    0.122743
  22 H :    0.111042
  23 H :    0.095905
  24 H :    0.107758

  Mayer bond orders larger than 0.100000
B(  0-C ,  1-C ) :   0.9372 B(  0-C ,  4-O ) :   0.9031 B(  0-C ,  5-H ) :   0.9264
B(  0-C , 19-O ) :   0.8517 B(  1-C ,  2-C ) :   0.9535 B(  1-C ,  6-H ) :   0.9360
B(  1-C ,  7-H ) :   0.9345 B(  2-C ,  3-C ) :   0.9544 B(  2-C ,  8-H ) :   0.9443
B(  2-C ,  9-H ) :   0.9419 B(  3-C ,  4-O ) :   0.8280 B(  3-C , 10-H ) :   0.9346
B(  3-C , 11-H ) :   0.9406 B( 12-C , 13-H ) :   0.9137 B( 12-C , 14-C ) :   0.9300
B( 12-C , 17-O ) :   0.8727 B( 12-C , 18-H ) :   0.9318 B( 14-C , 15-C ) :   0.9415
B( 14-C , 19-O ) :   0.8221 B( 14-C , 20-H ) :   0.9038 B( 15-C , 16-C ) :   0.9475
B( 15-C , 21-H ) :   0.9419 B( 15-C , 22-H ) :   0.9391 B( 16-C , 17-O ) :   0.8554
B( 16-C , 23-H ) :   0.9342 B( 16-C , 24-H ) :   0.9364

FINAL SINGLE POINT ENERGY      -538.432668672056

DIPOLE MOMENT
-------------
                                X             Y             Z
Electronic contribution:     -1.09476      -1.10421      -1.08200
Nuclear contribution   :      2.00131       1.06890       1.46404
                        -----------------------------------------
Total Dipole Moment    :      0.90655      -0.03531       0.38205
                        -----------------------------------------
Magnitude (a.u.)       :      0.98440
Magnitude (Debye)      :      2.50214

Rotational constants in cm-1:     0.079709     0.021509     0.020842
Rotational constants in MHz :  2389.626735   644.832420   624.831014

                             ****ORCA TERMINATED NORMALLY****
TOTAL RUN TIME: 0 days 0 hours 9 minutes 5 seconds 371 msec
