                         Program Version 4.2.0 -  RELEASE  -
|  1> # Test redundant internal optimization
|  2> #
|  3> ! RKS B3LYP  Opt TightSCF SmallPrint
|  4>
|  5> %basis
|  6>         Basis "6-31G"
|  7> end
|  8>
|  9> %geom
| 10> Constraints
| 11> { D 4  0  15  12  330.0   C } # D for Dihedral angle
| 12> { D 0  15  12  16  270.0   C } # D for Dihedral angle
| 13> { D 0  4  3  2   C } # D for Dihedral angle
| 14> { D 4  3  2  1   C } # D for Dihedral angle
| 15> { D 3  2  1  0   C } # D for Dihedral angle
| 16> { D 2  1  0  4   C } # D for Dihedral angle
| 17> { D 1  0  4  3   C } # D for Dihedral angle
| 18> { D 16  20  19  18   C } # D for Dihedral angle
| 19> { D 20  19  18  17   C } # D for Dihedral angle
| 20> { D 19  18  17  16   C } # D for Dihedral angle
| 21> { D 18  17  16  20   C } # D for Dihedral angle
| 22> { D 17  16  20  19   C } # D for Dihedral angle
| 23> { D 15  12  16  20   C } # D for Dihedral angle
| 24> end
| 25> end
| 26>
| 27>
| 28> #%pal
| 29> #nprocs 8
| 30> #end
| 31>
| 32> * xyz 0 1
| 33> C  -21.048   26.222   46.251
| 34> C  -20.361   27.558   45.944
| 35> C  -20.329   28.222   47.341
| 36> C  -20.110   27.022   48.296
| 37> O  -20.473   25.807   47.535
| 38> H  -20.833   25.428   45.533
| 39> H  -19.344   27.382   45.576
| 40> H  -20.898   28.157   45.201
| 41> H  -19.543   28.978   47.434
| 42> H  -21.289   28.710   47.548
| 43> H  -20.733   27.082   49.195
| 44> H  -19.064   26.913   48.597
| 45> C  -23.271   25.476   47.424
| 46> H  -22.568   25.273   48.241
| 47> H  -24.155   25.969   47.847
| 48> O  -22.586   26.394   46.375
| 49> C  -23.729   24.117   46.825
| 50> C  -24.501   23.286   47.856
| 51> C  -25.897   23.952   47.812
| 52> C  -26.052   24.347   46.323
| 53> O  -24.693   24.334   45.741
| 54> H  -22.866   23.609   46.390
| 55> H  -24.560   22.242   47.530
| 56> O  -23.861   23.322   49.271
| 57> H  -26.696   23.285   48.152
| 58> H  -25.910   24.843   48.452
| 59> H  -26.486   25.346   46.197
| 60> H  -26.651   23.626   45.759
| 61> H  -23.792   24.358   49.619
| 62> *
| 63>
| 64>                          ****END OF INPUT****
 Total Charge           Charge          ....    0
 Multiplicity           Mult            ....    1
 Number of Electrons    NEL             ....  102
FINAL SINGLE POINT ENERGY      -652.829693796308
FINAL SINGLE POINT ENERGY      -652.852969806232
FINAL SINGLE POINT ENERGY      -652.857518989251
FINAL SINGLE POINT ENERGY      -652.858312403584
FINAL SINGLE POINT ENERGY      -652.858460000907
FINAL SINGLE POINT ENERGY      -652.858492245936
FINAL SINGLE POINT ENERGY      -652.858496564400
                    ***********************HURRAY********************

CARTESIAN COORDINATES (ANGSTROEM)
---------------------------------
  C    -21.074011   26.168469   46.300053
  C    -20.466511   27.526541   45.950452
  C    -20.372796   28.195257   47.339245
  C    -20.044110   27.017002   48.281230
  O    -20.412441   25.783722   47.527902
  H    -20.871164   25.363970   45.587480
  H    -19.473259   27.375696   45.512656
  H    -21.088766   28.081774   45.245695
  H    -19.611150   28.980278   47.378315
  H    -21.338741   28.639493   47.597388
  H    -20.608594   27.040193   49.217325
  H    -18.977272   26.932946   48.506375
  C    -23.202056   25.540881   47.439392
  H    -22.535637   25.348861   48.286884
  H    -24.043327   26.164757   47.758483
  O    -22.511376   26.343798   46.439617
  C    -23.693106   24.207451   46.869023
  C    -24.476466   23.351826   47.880711
  C    -25.903442   23.975874   47.790414
  C    -26.011556   24.357244   46.297888
  O    -24.628396   24.386256   45.761685
  H    -22.838691   23.662090   46.456868
  H    -24.495153   22.314373   47.539885
  O    -23.921310   23.280502   49.215467
  H    -26.680073   23.275758   48.110051
  H    -25.958483   24.860388   48.438919
  H    -26.476233   25.336090   46.140038
  H    -26.563656   23.610173   45.719254
  H    -24.021225   24.138340   49.676305

 Multiplicity           Mult            ....    1
 Number of Electrons    NEL             ....  102
 Basis Dimension        Dim             ....  149

ORBITAL ENERGIES
----------------

  NO   OCC          E(Eh)            E(eV)
   0   2.0000     -19.147125      -521.0198
   1   2.0000     -19.146647      -521.0068
   2   2.0000     -19.136521      -520.7312
   3   2.0000     -19.132087      -520.6106
   4   2.0000     -10.275443      -279.6090
   5   2.0000     -10.241989      -278.6987
   6   2.0000     -10.229811      -278.3673
   7   2.0000     -10.226882      -278.2876
   8   2.0000     -10.225281      -278.2440
   9   2.0000     -10.223179      -278.1868
  10   2.0000     -10.192519      -277.3525
  11   2.0000     -10.187052      -277.2038
  12   2.0000     -10.183418      -277.1049
  13   2.0000      -1.052759       -28.6470
  14   2.0000      -1.030067       -28.0295
  15   2.0000      -1.011814       -27.5329
  16   2.0000      -0.988866       -26.9084
  17   2.0000      -0.789545       -21.4846
  18   2.0000      -0.778416       -21.1818
  19   2.0000      -0.762754       -20.7556
  20   2.0000      -0.732016       -19.9192
  21   2.0000      -0.676019       -18.3954
  22   2.0000      -0.607682       -16.5359
  23   2.0000      -0.601347       -16.3635
  24   2.0000      -0.596318       -16.2266
  25   2.0000      -0.563022       -15.3206
  26   2.0000      -0.526349       -14.3227
  27   2.0000      -0.508201       -13.8289
  28   2.0000      -0.497315       -13.5326
  29   2.0000      -0.494056       -13.4440
  30   2.0000      -0.468006       -12.7351
  31   2.0000      -0.455010       -12.3815
  32   2.0000      -0.440068       -11.9749
  33   2.0000      -0.429714       -11.6931
  34   2.0000      -0.423242       -11.5170
  35   2.0000      -0.415677       -11.3112
  36   2.0000      -0.407443       -11.0871
  37   2.0000      -0.396925       -10.8009
  38   2.0000      -0.373393       -10.1605
  39   2.0000      -0.370281       -10.0758
  40   2.0000      -0.358236        -9.7481
  41   2.0000      -0.351528        -9.5656
  42   2.0000      -0.347108        -9.4453
  43   2.0000      -0.333767        -9.0823
  44   2.0000      -0.326813        -8.8930
  45   2.0000      -0.310329        -8.4445
  46   2.0000      -0.295266        -8.0346
  47   2.0000      -0.267974        -7.2920
  48   2.0000      -0.263360        -7.1664
  49   2.0000      -0.260354        -7.0846
  50   2.0000      -0.229788        -6.2528
  51   0.0000       0.053979         1.4688
  52   0.0000       0.079672         2.1680
  53   0.0000       0.088829         2.4171
  54   0.0000       0.093540         2.5453
  55   0.0000       0.108032         2.9397

MULLIKEN ATOMIC CHARGES
-----------------------
   0 C :    0.291532
   1 C :   -0.259279
   2 C :   -0.301376
   3 C :   -0.011793
   4 O :   -0.513511
   5 H :    0.155074
   6 H :    0.144000
   7 H :    0.164599
   8 H :    0.144082
   9 H :    0.157881
  10 H :    0.140637
  11 H :    0.149683
  12 C :   -0.033117
  13 H :    0.156098
  14 H :    0.134508
  15 O :   -0.517613
  16 C :    0.090308
  17 C :    0.078715
  18 C :   -0.320857
  19 C :   -0.011071
  20 O :   -0.506324
  21 H :    0.159930
  22 H :    0.169336
  23 O :   -0.597545
  24 H :    0.156309
  25 H :    0.131957
  26 H :    0.143483
  27 H :    0.149610
  28 H :    0.354743
Sum of atomic charges:   -0.0000000

LOEWDIN ATOMIC CHARGES
----------------------
   0 C :    0.177380
   1 C :   -0.214690
   2 C :   -0.217725
   3 C :   -0.030455
   4 O :   -0.323802
   5 H :    0.100379
   6 H :    0.113444
   7 H :    0.128097
   8 H :    0.115319
   9 H :    0.116937
  10 H :    0.101216
  11 H :    0.106409
  12 C :   -0.058324
  13 H :    0.110889
  14 H :    0.102547
  15 O :   -0.323927
  16 C :    0.011493
  17 C :    0.033722
  18 C :   -0.241920
  19 C :   -0.030719
  20 O :   -0.316593
  21 H :    0.116138
  22 H :    0.119785
  23 O :   -0.405934
  24 H :    0.121981
  25 H :    0.103386
  26 H :    0.102594
  27 H :    0.105662
  28 H :    0.276713

  Mayer bond orders larger than 0.100000
B(  0-C ,  1-C ) :   0.9439 B(  0-C ,  4-O ) :   0.8974 B(  0-C ,  5-H ) :   0.9213
B(  0-C , 15-O ) :   0.8526 B(  1-C ,  2-C ) :   0.9537 B(  1-C ,  6-H ) :   0.9381
B(  1-C ,  7-H ) :   0.9348 B(  2-C ,  3-C ) :   0.9554 B(  2-C ,  8-H ) :   0.9449
B(  2-C ,  9-H ) :   0.9450 B(  3-C ,  4-O ) :   0.8318 B(  3-C , 10-H ) :   0.9355
B(  3-C , 11-H ) :   0.9407 B( 12-C , 13-H ) :   0.8929 B( 12-C , 14-H ) :   0.9383
B( 12-C , 15-O ) :   0.8600 B( 12-C , 16-C ) :   0.8893 B( 16-C , 17-C ) :   0.8736
B( 16-C , 20-O ) :   0.8668 B( 16-C , 21-H ) :   0.9316 B( 17-C , 18-C ) :   0.9230
B( 17-C , 22-H ) :   0.9321 B( 17-C , 23-O ) :   0.8979 B( 18-C , 19-C ) :   0.9382
B( 18-C , 24-H ) :   0.9421 B( 18-C , 25-H ) :   0.9425 B( 19-C , 20-O ) :   0.8509
B( 19-C , 26-H ) :   0.9319 B( 19-C , 27-H ) :   0.9376 B( 23-O , 28-H ) :   0.7980

FINAL SINGLE POINT ENERGY      -652.858497755947

DIPOLE MOMENT
-------------
                                X             Y             Z
Electronic contribution:      0.03607      -3.74067      -1.50491
Nuclear contribution   :     -0.28136       4.66424       2.13430
                        -----------------------------------------
Total Dipole Moment    :     -0.24529       0.92357       0.62938
                        -----------------------------------------
Magnitude (a.u.)       :      1.14424
Magnitude (Debye)      :      2.90842

Rotational constants in cm-1:     0.055116     0.013489     0.011918
Rotational constants in MHz :  1652.344863   404.402980   357.288564

                             ****ORCA TERMINATED NORMALLY****
TOTAL RUN TIME: 0 days 0 hours 20 minutes 39 seconds 436 msec
