                         Program Version 4.2.0 -  RELEASE  -
|  1> # Test redundant internal optimization
|  2> #
|  3> ! RKS B3LYP  Opt TightSCF SmallPrint
|  4>
|  5> %basis
|  6>         Basis "6-31G"
|  7> end
|  8>
|  9> %geom
| 10> Constraints
| 11> { D 4  0  15  12  15.0   C } # D for Dihedral angle
| 12> { D 0  15  12  16  180.0   C } # D for Dihedral angle
| 13> { D 0  4  3  2   C } # D for Dihedral angle
| 14> { D 4  3  2  1   C } # D for Dihedral angle
| 15> { D 3  2  1  0   C } # D for Dihedral angle
| 16> { D 2  1  0  4   C } # D for Dihedral angle
| 17> { D 1  0  4  3   C } # D for Dihedral angle
| 18> { D 16  20  19  18   C } # D for Dihedral angle
| 19> { D 20  19  18  17   C } # D for Dihedral angle
| 20> { D 19  18  17  16   C } # D for Dihedral angle
| 21> { D 18  17  16  20   C } # D for Dihedral angle
| 22> { D 17  16  20  19   C } # D for Dihedral angle
| 23> { D 15  12  16  20   C } # D for Dihedral angle
| 24> end
| 25> end
| 26>
| 27>
| 28> #%pal
| 29> #nprocs 8
| 30> #end
| 31>
| 32> * xyz 0 1
| 33> C  -21.048   26.222   46.251
| 34> C  -20.361   27.558   45.944
| 35> C  -20.329   28.222   47.341
| 36> C  -20.110   27.022   48.296
| 37> O  -20.473   25.807   47.535
| 38> H  -20.833   25.428   45.533
| 39> H  -19.344   27.382   45.576
| 40> H  -20.898   28.157   45.201
| 41> H  -19.543   28.978   47.434
| 42> H  -21.289   28.710   47.548
| 43> H  -20.733   27.082   49.195
| 44> H  -19.064   26.913   48.597
| 45> C  -23.128   26.462   47.829
| 46> H  -22.864   25.538   48.358
| 47> H  -22.677   27.306   48.368
| 48> O  -22.586   26.394   46.375
| 49> C  -24.671   26.634   47.888
| 50> C  -25.157   26.814   49.330
| 51> C  -24.826   28.303   49.589
| 52> C  -25.081   28.965   48.212
| 53> O  -25.074   27.873   47.214
| 54> H  -25.144   25.809   47.351
| 55> O  -26.689   26.570   49.411
| 56> H  -24.662   26.140   50.038
| 57> H  -25.439   28.742   50.383
| 58> H  -23.774   28.410   49.881
| 59> H  -24.308   29.696   47.949
| 60> H  -26.060   29.448   48.156
| 61> H  -27.205   27.236   48.711
| 62> *
| 63>
| 64>                          ****END OF INPUT****
 Total Charge           Charge          ....    0
 Multiplicity           Mult            ....    1
 Number of Electrons    NEL             ....  102
FINAL SINGLE POINT ENERGY      -652.827768099636
FINAL SINGLE POINT ENERGY      -652.851231210849
FINAL SINGLE POINT ENERGY      -652.856212231992
FINAL SINGLE POINT ENERGY      -652.857037904551
FINAL SINGLE POINT ENERGY      -652.857151183692
FINAL SINGLE POINT ENERGY      -652.857167773911
                    ***********************HURRAY********************

CARTESIAN COORDINATES (ANGSTROEM)
---------------------------------
  C    -21.179473   26.254315   46.366902
  C    -20.482837   27.549444   45.941018
  C    -20.156086   28.199839   47.308841
  C    -19.838654   26.981358   48.206575
  O    -20.416049   25.800783   47.508458
  H    -21.129352   25.456771   45.622812
  H    -19.565466   27.302331   45.394034
  H    -21.123521   28.167838   45.309118
  H    -19.315768   28.898726   47.253667
  H    -21.026764   28.750358   47.680151
  H    -20.277318   27.049627   49.206373
  H    -18.764886   26.793891   48.299960
  C    -23.077190   26.504418   47.988407
  H    -22.851168   25.570340   48.518972
  H    -22.608634   27.331561   48.539597
  O    -22.598011   26.446427   46.622260
  C    -24.586830   26.710717   47.917149
  C    -25.268918   26.836540   49.286969
  C    -25.041070   28.335808   49.617216
  C    -25.140427   29.016786   48.229110
  O    -24.952082   27.948157   47.220298
  H    -25.020097   25.894541   47.331181
  O    -26.684364   26.519678   49.190295
  H    -24.872352   26.160732   50.046310
  H    -25.793588   28.693478   50.324419
  H    -24.051338   28.480675   50.065082
  H    -24.379235   29.789048   48.079778
  H    -26.124828   29.461351   48.050720
  H    -27.043692   26.915462   48.368328

 Multiplicity           Mult            ....    1
 Number of Electrons    NEL             ....  102
 Basis Dimension        Dim             ....  149

ORBITAL ENERGIES
----------------

  NO   OCC          E(Eh)            E(eV)
   0   2.0000     -19.150125      -521.1014
   1   2.0000     -19.140016      -520.8263
   2   2.0000     -19.138103      -520.7742
   3   2.0000     -19.135989      -520.7167
   4   2.0000     -10.277911      -279.6762
   5   2.0000     -10.243091      -278.7287
   6   2.0000     -10.234339      -278.4905
   7   2.0000     -10.232750      -278.4473
   8   2.0000     -10.231238      -278.4061
   9   2.0000     -10.230745      -278.3927
  10   2.0000     -10.193469      -277.3784
  11   2.0000     -10.190708      -277.3033
  12   2.0000     -10.185166      -277.1525
  13   2.0000      -1.055012       -28.7083
  14   2.0000      -1.035804       -28.1857
  15   2.0000      -1.005992       -27.3744
  16   2.0000      -0.991886       -26.9906
  17   2.0000      -0.791773       -21.5452
  18   2.0000      -0.784043       -21.3349
  19   2.0000      -0.770150       -20.9568
  20   2.0000      -0.734233       -19.9795
  21   2.0000      -0.674153       -18.3446
  22   2.0000      -0.605867       -16.4865
  23   2.0000      -0.604638       -16.4530
  24   2.0000      -0.594820       -16.1859
  25   2.0000      -0.578179       -15.7330
  26   2.0000      -0.527434       -14.3522
  27   2.0000      -0.507409       -13.8073
  28   2.0000      -0.498930       -13.5766
  29   2.0000      -0.493780       -13.4364
  30   2.0000      -0.477219       -12.9858
  31   2.0000      -0.461186       -12.5495
  32   2.0000      -0.454403       -12.3649
  33   2.0000      -0.438435       -11.9304
  34   2.0000      -0.417583       -11.3630
  35   2.0000      -0.417130       -11.3507
  36   2.0000      -0.403301       -10.9744
  37   2.0000      -0.393871       -10.7178
  38   2.0000      -0.376382       -10.2419
  39   2.0000      -0.371844       -10.1184
  40   2.0000      -0.361418        -9.8347
  41   2.0000      -0.358832        -9.7643
  42   2.0000      -0.350484        -9.5371
  43   2.0000      -0.339220        -9.2306
  44   2.0000      -0.324728        -8.8363
  45   2.0000      -0.310712        -8.4549
  46   2.0000      -0.304272        -8.2797
  47   2.0000      -0.271211        -7.3800
  48   2.0000      -0.263240        -7.1631
  49   2.0000      -0.247354        -6.7308
  50   2.0000      -0.243094        -6.6149
  51   0.0000       0.055076         1.4987
  52   0.0000       0.076127         2.0715
  53   0.0000       0.090589         2.4651
  54   0.0000       0.097503         2.6532
  55   0.0000       0.102872         2.7993

MULLIKEN ATOMIC CHARGES
-----------------------
   0 C :    0.295752
   1 C :   -0.254829
   2 C :   -0.314089
   3 C :   -0.016873
   4 O :   -0.510863
   5 H :    0.161580
   6 H :    0.144674
   7 H :    0.165828
   8 H :    0.147879
   9 H :    0.153829
  10 H :    0.140633
  11 H :    0.152301
  12 C :    0.016595
  13 H :    0.148114
  14 H :    0.113527
  15 O :   -0.528206
  16 C :    0.060490
  17 C :    0.074810
  18 C :   -0.296183
  19 C :   -0.028538
  20 O :   -0.509618
  21 H :    0.171533
  22 O :   -0.602164
  23 H :    0.153301
  24 H :    0.164821
  25 H :    0.138708
  26 H :    0.145319
  27 H :    0.145099
  28 H :    0.366570
Sum of atomic charges:    0.0000000

LOEWDIN ATOMIC CHARGES
----------------------
   0 C :    0.181327
   1 C :   -0.222429
   2 C :   -0.221483
   3 C :   -0.034466
   4 O :   -0.319799
   5 H :    0.109135
   6 H :    0.114251
   7 H :    0.128199
   8 H :    0.117503
   9 H :    0.111753
  10 H :    0.099764
  11 H :    0.107523
  12 C :   -0.036358
  13 H :    0.106153
  14 H :    0.084594
  15 O :   -0.327790
  16 C :    0.018207
  17 C :    0.035521
  18 C :   -0.242430
  19 C :   -0.038737
  20 O :   -0.320571
  21 H :    0.122145
  22 O :   -0.414088
  23 H :    0.115833
  24 H :    0.127134
  25 H :    0.109920
  26 H :    0.102882
  27 H :    0.102114
  28 H :    0.284195

  Mayer bond orders larger than 0.100000
B(  0-C ,  1-C ) :   0.9229 B(  0-C ,  4-O ) :   0.9069 B(  0-C ,  5-H ) :   0.9324
B(  0-C , 15-O ) :   0.8577 B(  1-C ,  2-C ) :   0.9524 B(  1-C ,  6-H ) :   0.9349
B(  1-C ,  7-H ) :   0.9350 B(  2-C ,  3-C ) :   0.9514 B(  2-C ,  8-H ) :   0.9443
B(  2-C ,  9-H ) :   0.9430 B(  3-C ,  4-O ) :   0.8339 B(  3-C , 10-H ) :   0.9323
B(  3-C , 11-H ) :   0.9394 B( 12-C , 13-H ) :   0.9100 B( 12-C , 14-H ) :   0.9089
B( 12-C , 15-O ) :   0.8327 B( 12-C , 16-C ) :   0.9020 B( 16-C , 17-C ) :   0.9013
B( 16-C , 20-O ) :   0.8627 B( 16-C , 21-H ) :   0.9220 B( 17-C , 18-C ) :   0.9104
B( 17-C , 22-O ) :   0.8942 B( 17-C , 23-H ) :   0.9322 B( 18-C , 19-C ) :   0.9402
B( 18-C , 24-H ) :   0.9371 B( 18-C , 25-H ) :   0.9345 B( 19-C , 20-O ) :   0.8539
B( 19-C , 26-H ) :   0.9340 B( 19-C , 27-H ) :   0.9376 B( 22-O , 28-H ) :   0.7929

FINAL SINGLE POINT ENERGY      -652.857170141704

DIPOLE MOMENT
-------------
                                X             Y             Z
Electronic contribution:     -3.79524      -4.72623      -2.51633
Nuclear contribution   :      4.68738       5.84204       3.01872
                        -----------------------------------------
Total Dipole Moment    :      0.89214       1.11582       0.50239
                        -----------------------------------------
Magnitude (a.u.)       :      1.51439
Magnitude (Debye)      :      3.84926

Rotational constants in cm-1:     0.055370     0.013258     0.012935
Rotational constants in MHz :  1659.958870   397.455700   387.777982

                             ****ORCA TERMINATED NORMALLY****
TOTAL RUN TIME: 0 days 2 hours 5 minutes 17 seconds 445 msec
