                         Program Version 4.2.0 -  RELEASE  -
|  1> # Test redundant internal optimization
|  2> #
|  3> ! RKS B3LYP  Opt TightSCF SmallPrint
|  4>
|  5> %basis
|  6>         Basis "6-31G"
|  7> end
|  8>
|  9> %geom
| 10> Constraints
| 11> { D 4  0  15  12  345.0   C } # D for Dihedral angle
| 12> { D 0  15  12  16  165.0   C } # D for Dihedral angle
| 13> { D 0  4  3  2   C } # D for Dihedral angle
| 14> { D 4  3  2  1   C } # D for Dihedral angle
| 15> { D 3  2  1  0   C } # D for Dihedral angle
| 16> { D 2  1  0  4   C } # D for Dihedral angle
| 17> { D 1  0  4  3   C } # D for Dihedral angle
| 18> { D 16  20  19  18   C } # D for Dihedral angle
| 19> { D 20  19  18  17   C } # D for Dihedral angle
| 20> { D 19  18  17  16   C } # D for Dihedral angle
| 21> { D 18  17  16  20   C } # D for Dihedral angle
| 22> { D 17  16  20  19   C } # D for Dihedral angle
| 23> { D 15  12  16  20   C } # D for Dihedral angle
| 24> end
| 25> end
| 26>
| 27>
| 28> #%pal
| 29> #nprocs 8
| 30> #end
| 31>
| 32> * xyz 0 1
| 33> C  -21.048   26.222   46.251
| 34> C  -20.361   27.558   45.944
| 35> C  -20.329   28.222   47.341
| 36> C  -20.110   27.022   48.296
| 37> O  -20.473   25.807   47.535
| 38> H  -20.833   25.428   45.533
| 39> H  -19.344   27.382   45.576
| 40> H  -20.898   28.157   45.201
| 41> H  -19.543   28.978   47.434
| 42> H  -21.289   28.710   47.548
| 43> H  -20.733   27.082   49.195
| 44> H  -19.064   26.913   48.597
| 45> C  -23.221   25.764   47.645
| 46> H  -23.254   24.674   47.530
| 47> H  -22.617   25.997   48.532
| 48> O  -22.586   26.394   46.375
| 49> C  -24.665   26.272   47.910
| 50> C  -25.216   25.721   49.230
| 51> C  -24.535   26.648   50.265
| 52> C  -24.484   28.013   49.535
| 53> O  -24.670   27.727   48.096
| 54> H  -25.285   26.059   47.037
| 55> H  -26.305   25.839   49.262
| 56> O  -24.880   24.221   49.452
| 57> H  -25.082   26.701   51.212
| 58> H  -23.522   26.288   50.483
| 59> H  -23.527   28.528   49.676
| 60> H  -25.295   28.680   49.839
| 61> H  -23.794   24.078   49.424
| 62> *
| 63>
| 64>                          ****END OF INPUT****
 Total Charge           Charge          ....    0
 Multiplicity           Mult            ....    1
 Number of Electrons    NEL             ....  102
FINAL SINGLE POINT ENERGY      -652.827532139260
FINAL SINGLE POINT ENERGY      -652.851286006033
FINAL SINGLE POINT ENERGY      -652.856086659452
FINAL SINGLE POINT ENERGY      -652.856868921809
FINAL SINGLE POINT ENERGY      -652.856994272356
FINAL SINGLE POINT ENERGY      -652.857021227438
FINAL SINGLE POINT ENERGY      -652.857023952221
                    ***********************HURRAY********************

CARTESIAN COORDINATES (ANGSTROEM)
---------------------------------
  C    -21.081446   26.219648   46.286225
  C    -20.548950   27.616125   45.966803
  C    -20.372675   28.214739   47.379117
  C    -19.933389   27.003388   48.228777
  O    -20.315402   25.796694   47.439371
  H    -20.909606   25.461148   45.517143
  H    -19.588378   27.529043   45.445469
  H    -21.245550   28.183534   45.346431
  H    -19.640637   29.027615   47.405808
  H    -21.336035   28.601969   47.725638
  H    -20.426290   26.957076   49.204649
  H    -18.850171   26.948527   48.371722
  C    -23.067259   25.689337   47.712697
  H    -23.129745   24.598458   47.585848
  H    -22.436239   25.892849   48.585476
  O    -22.511776   26.313231   46.528589
  C    -24.469860   26.260708   47.895615
  C    -25.203010   25.739845   49.144355
  C    -24.633412   26.668520   50.258925
  C    -24.456089   28.014492   49.524019
  O    -24.462698   27.712756   48.069345
  H    -25.036987   26.077625   46.978741
  H    -26.276611   25.902036   49.026563
  O    -25.078239   24.321637   49.402108
  H    -25.302106   26.737710   51.121169
  H    -23.671421   26.271523   50.609369
  H    -23.519704   28.520654   49.781558
  H    -25.287393   28.701438   49.711762
  H    -24.171923   24.102675   49.700708

 Multiplicity           Mult            ....    1
 Number of Electrons    NEL             ....  102
 Basis Dimension        Dim             ....  149

ORBITAL ENERGIES
----------------

  NO   OCC          E(Eh)            E(eV)
   0   2.0000     -19.149163      -521.0752
   1   2.0000     -19.148788      -521.0650
   2   2.0000     -19.137125      -520.7476
   3   2.0000     -19.134891      -520.6868
   4   2.0000     -10.276819      -279.6465
   5   2.0000     -10.244642      -278.7709
   6   2.0000     -10.231782      -278.4210
   7   2.0000     -10.231381      -278.4100
   8   2.0000     -10.228378      -278.3283
   9   2.0000     -10.226920      -278.2886
  10   2.0000     -10.195421      -277.4315
  11   2.0000     -10.186018      -277.1756
  12   2.0000     -10.181949      -277.0649
  13   2.0000      -1.053824       -28.6760
  14   2.0000      -1.032718       -28.1017
  15   2.0000      -1.014840       -27.6152
  16   2.0000      -0.989933       -26.9375
  17   2.0000      -0.789414       -21.4810
  18   2.0000      -0.781713       -21.2715
  19   2.0000      -0.768099       -20.9010
  20   2.0000      -0.731807       -19.9135
  21   2.0000      -0.677806       -18.4440
  22   2.0000      -0.610957       -16.6250
  23   2.0000      -0.601479       -16.3671
  24   2.0000      -0.590182       -16.0597
  25   2.0000      -0.572034       -15.5658
  26   2.0000      -0.530092       -14.4245
  27   2.0000      -0.510140       -13.8816
  28   2.0000      -0.497137       -13.5278
  29   2.0000      -0.492664       -13.4061
  30   2.0000      -0.471979       -12.8432
  31   2.0000      -0.456649       -12.4261
  32   2.0000      -0.446440       -12.1482
  33   2.0000      -0.434060       -11.8114
  34   2.0000      -0.427004       -11.6194
  35   2.0000      -0.413572       -11.2539
  36   2.0000      -0.403127       -10.9696
  37   2.0000      -0.399050       -10.8587
  38   2.0000      -0.378948       -10.3117
  39   2.0000      -0.368398       -10.0246
  40   2.0000      -0.359698        -9.7879
  41   2.0000      -0.354797        -9.6545
  42   2.0000      -0.346505        -9.4289
  43   2.0000      -0.337536        -9.1848
  44   2.0000      -0.324762        -8.8372
  45   2.0000      -0.313168        -8.5217
  46   2.0000      -0.302876        -8.2417
  47   2.0000      -0.270499        -7.3607
  48   2.0000      -0.262642        -7.1469
  49   2.0000      -0.247373        -6.7314
  50   2.0000      -0.241436        -6.5698
  51   0.0000       0.049392         1.3440
  52   0.0000       0.057800         1.5728
  53   0.0000       0.092098         2.5061
  54   0.0000       0.095116         2.5882
  55   0.0000       0.104791         2.8515

MULLIKEN ATOMIC CHARGES
-----------------------
   0 C :    0.299738
   1 C :   -0.254373
   2 C :   -0.309951
   3 C :   -0.019334
   4 O :   -0.515557
   5 H :    0.151427
   6 H :    0.140938
   7 H :    0.167965
   8 H :    0.143564
   9 H :    0.173105
  10 H :    0.135941
  11 H :    0.150757
  12 C :   -0.001722
  13 H :    0.135431
  14 H :    0.129023
  15 O :   -0.531360
  16 C :    0.092603
  17 C :    0.079691
  18 C :   -0.320562
  19 C :   -0.015571
  20 O :   -0.506393
  21 H :    0.165496
  22 H :    0.171687
  23 O :   -0.599482
  24 H :    0.158816
  25 H :    0.130263
  26 H :    0.138438
  27 H :    0.151482
  28 H :    0.357940
Sum of atomic charges:   -0.0000000

LOEWDIN ATOMIC CHARGES
----------------------
   0 C :    0.182739
   1 C :   -0.216564
   2 C :   -0.220277
   3 C :   -0.033099
   4 O :   -0.324588
   5 H :    0.100911
   6 H :    0.111557
   7 H :    0.129881
   8 H :    0.115639
   9 H :    0.123190
  10 H :    0.096842
  11 H :    0.106434
  12 C :   -0.046318
  13 H :    0.098716
  14 H :    0.092780
  15 O :   -0.328952
  16 C :    0.021405
  17 C :    0.034762
  18 C :   -0.242025
  19 C :   -0.032385
  20 O :   -0.315434
  21 H :    0.120504
  22 H :    0.120794
  23 O :   -0.406322
  24 H :    0.122964
  25 H :    0.102851
  26 H :    0.098725
  27 H :    0.106305
  28 H :    0.278964

  Mayer bond orders larger than 0.100000
B(  0-C ,  1-C ) :   0.9397 B(  0-C ,  4-O ) :   0.9032 B(  0-C ,  5-H ) :   0.9254
B(  0-C , 15-O ) :   0.8438 B(  1-C ,  2-C ) :   0.9534 B(  1-C ,  6-H ) :   0.9368
B(  1-C ,  7-H ) :   0.9343 B(  2-C ,  3-C ) :   0.9544 B(  2-C ,  8-H ) :   0.9444
B(  2-C ,  9-H ) :   0.9379 B(  3-C ,  4-O ) :   0.8321 B(  3-C , 10-H ) :   0.9322
B(  3-C , 11-H ) :   0.9405 B( 12-C , 13-H ) :   0.9075 B( 12-C , 14-H ) :   0.9119
B( 12-C , 15-O ) :   0.8370 B( 12-C , 16-C ) :   0.9036 B( 16-C , 17-C ) :   0.8740
B( 16-C , 20-O ) :   0.8637 B( 16-C , 21-H ) :   0.9283 B( 17-C , 18-C ) :   0.9217
B( 17-C , 22-H ) :   0.9327 B( 17-C , 23-O ) :   0.9000 B( 18-C , 19-C ) :   0.9383
B( 18-C , 24-H ) :   0.9414 B( 18-C , 25-H ) :   0.9415 B( 19-C , 20-O ) :   0.8533
B( 19-C , 26-H ) :   0.9310 B( 19-C , 27-H ) :   0.9373 B( 23-O , 28-H ) :   0.7967

FINAL SINGLE POINT ENERGY      -652.857024435612

DIPOLE MOMENT
-------------
                                X             Y             Z
Electronic contribution:     -2.76273      -3.67116      -2.93201
Nuclear contribution   :      3.50529       4.26302       3.85958
                        -----------------------------------------
Total Dipole Moment    :      0.74256       0.59186       0.92758
                        -----------------------------------------
Magnitude (a.u.)       :      1.32744
Magnitude (Debye)      :      3.37408

Rotational constants in cm-1:     0.046874     0.015442     0.014378
Rotational constants in MHz :  1405.261110   462.952694   431.029989

                             ****ORCA TERMINATED NORMALLY****
TOTAL RUN TIME: 0 days 1 hours 4 minutes 28 seconds 813 msec
