                         Program Version 4.2.0 -  RELEASE  -
|  1> # Test redundant internal optimization
|  2> #
|  3> ! RKS B3LYP  Opt TightSCF SmallPrint
|  4>
|  5> %basis
|  6>         Basis "6-31G"
|  7> end
|  8>
|  9> %geom
| 10> Constraints
| 11> { D 4  0  15  12  195.0   C } # D for Dihedral angle
| 12> { D 0  15  12  16  30.0   C } # D for Dihedral angle
| 13> { D 0  4  3  2   C } # D for Dihedral angle
| 14> { D 4  3  2  1   C } # D for Dihedral angle
| 15> { D 3  2  1  0   C } # D for Dihedral angle
| 16> { D 2  1  0  4   C } # D for Dihedral angle
| 17> { D 1  0  4  3   C } # D for Dihedral angle
| 18> { D 16  20  19  18   C } # D for Dihedral angle
| 19> { D 20  19  18  17   C } # D for Dihedral angle
| 20> { D 19  18  17  16   C } # D for Dihedral angle
| 21> { D 18  17  16  20   C } # D for Dihedral angle
| 22> { D 17  16  20  19   C } # D for Dihedral angle
| 23> { D 15  12  16  20   C } # D for Dihedral angle
| 24> end
| 25> end
| 26>
| 27>
| 28> #%pal
| 29> #nprocs 8
| 30> #end
| 31>
| 32> * xyz 0 1
| 33> C  -21.048   26.222   46.251
| 34> C  -20.361   27.558   45.944
| 35> C  -20.329   28.222   47.341
| 36> C  -20.110   27.022   48.296
| 37> O  -20.473   25.807   47.535
| 38> H  -20.833   25.428   45.533
| 39> H  -19.344   27.382   45.576
| 40> H  -20.898   28.157   45.201
| 41> H  -19.543   28.978   47.434
| 42> H  -21.289   28.710   47.548
| 43> H  -20.733   27.082   49.195
| 44> H  -19.064   26.913   48.597
| 45> C  -23.353   26.472   45.026
| 46> H  -24.365   26.072   45.162
| 47> H  -23.437   27.514   44.692
| 48> O  -22.586   26.394   46.375
| 49> C  -22.658   25.668   43.893
| 50> C  -22.649   24.166   44.202
| 51> C  -24.091   23.758   43.817
| 52> C  -24.403   24.670   42.604
| 53> O  -23.422   25.775   42.646
| 54> H  -21.672   26.096   43.703
| 55> O  -21.614   23.443   43.296
| 56> H  -22.407   23.942   45.246
| 57> H  -24.181   22.695   43.575
| 58> H  -24.775   23.971   44.647
| 59> H  -25.415   25.086   42.641
| 60> H  -24.268   24.154   41.649
| 61> H  -21.836   23.652   42.243
| 62> *
| 63>
| 64>                          ****END OF INPUT****
 Total Charge           Charge          ....    0
 Multiplicity           Mult            ....    1
 Number of Electrons    NEL             ....  102
FINAL SINGLE POINT ENERGY      -652.830054588273
FINAL SINGLE POINT ENERGY      -652.851974929236
FINAL SINGLE POINT ENERGY      -652.855734111690
FINAL SINGLE POINT ENERGY      -652.856330987490
FINAL SINGLE POINT ENERGY      -652.856418030101
FINAL SINGLE POINT ENERGY      -652.856427998348
                    ***********************HURRAY********************

CARTESIAN COORDINATES (ANGSTROEM)
---------------------------------
  C    -20.988000   26.208743   46.236615
  C    -20.254641   27.519451   45.958639
  C    -20.373967   28.248815   47.319078
  C    -20.283991   27.093344   48.337166
  O    -20.579637   25.855988   47.565974
  H    -20.718639   25.374483   45.586619
  H    -19.206179   27.306155   45.718269
  H    -20.688947   28.088574   45.131087
  H    -19.588594   28.996571   47.464478
  H    -21.345296   28.746948   47.386822
  H    -21.008309   27.176996   49.151124
  H    -19.280077   26.967935   48.753436
  C    -23.195458   26.451480   45.027520
  H    -24.196157   26.105490   45.299070
  H    -23.282166   27.491216   44.683411
  O    -22.433518   26.405842   46.273265
  C    -22.645639   25.630438   43.853334
  C    -22.603195   24.109656   44.071322
  C    -24.083640   23.715636   43.825204
  C    -24.528640   24.694701   42.710217
  O    -23.544215   25.806109   42.706942
  H    -21.668332   26.005628   43.535685
  O    -21.696693   23.479858   43.125189
  H    -22.248414   23.812515   45.057270
  H    -24.158741   22.666968   43.527366
  H    -24.668352   23.855757   44.740036
  H    -25.528149   25.106845   42.877970
  H    -24.501160   24.240703   41.714949
  H    -21.858252   23.846153   42.229943

 Multiplicity           Mult            ....    1
 Number of Electrons    NEL             ....  102
 Basis Dimension        Dim             ....  149

ORBITAL ENERGIES
----------------

  NO   OCC          E(Eh)            E(eV)
   0   2.0000     -19.151787      -521.1466
   1   2.0000     -19.142965      -520.9066
   2   2.0000     -19.140188      -520.8310
   3   2.0000     -19.139077      -520.8008
   4   2.0000     -10.279171      -279.7105
   5   2.0000     -10.244043      -278.7546
   6   2.0000     -10.241486      -278.6850
   7   2.0000     -10.237003      -278.5630
   8   2.0000     -10.232846      -278.4499
   9   2.0000     -10.223512      -278.1959
  10   2.0000     -10.192830      -277.3610
  11   2.0000     -10.186204      -277.1807
  12   2.0000     -10.185296      -277.1560
  13   2.0000      -1.051738       -28.6192
  14   2.0000      -1.042562       -28.3696
  15   2.0000      -1.011856       -27.5340
  16   2.0000      -0.991525       -26.9808
  17   2.0000      -0.786671       -21.4064
  18   2.0000      -0.783334       -21.3156
  19   2.0000      -0.770134       -20.9564
  20   2.0000      -0.736536       -20.0422
  21   2.0000      -0.678938       -18.4749
  22   2.0000      -0.611415       -16.6374
  23   2.0000      -0.606672       -16.5084
  24   2.0000      -0.598570       -16.2879
  25   2.0000      -0.572555       -15.5800
  26   2.0000      -0.528624       -14.3846
  27   2.0000      -0.516624       -14.0581
  28   2.0000      -0.501006       -13.6331
  29   2.0000      -0.485020       -13.1981
  30   2.0000      -0.475460       -12.9379
  31   2.0000      -0.462297       -12.5797
  32   2.0000      -0.452236       -12.3060
  33   2.0000      -0.437227       -11.8976
  34   2.0000      -0.425015       -11.5652
  35   2.0000      -0.418511       -11.3883
  36   2.0000      -0.402946       -10.9647
  37   2.0000      -0.398239       -10.8366
  38   2.0000      -0.375689       -10.2230
  39   2.0000      -0.373949       -10.1757
  40   2.0000      -0.366234        -9.9657
  41   2.0000      -0.357687        -9.7332
  42   2.0000      -0.354132        -9.6364
  43   2.0000      -0.336477        -9.1560
  44   2.0000      -0.315086        -8.5739
  45   2.0000      -0.312146        -8.4939
  46   2.0000      -0.308011        -8.3814
  47   2.0000      -0.275014        -7.4835
  48   2.0000      -0.259149        -7.0518
  49   2.0000      -0.257338        -7.0025
  50   2.0000      -0.244131        -6.6431
  51   0.0000       0.059156         1.6097
  52   0.0000       0.072829         1.9818
  53   0.0000       0.088399         2.4055
  54   0.0000       0.094000         2.5579
  55   0.0000       0.097059         2.6411

MULLIKEN ATOMIC CHARGES
-----------------------
   0 C :    0.283324
   1 C :   -0.269722
   2 C :   -0.296721
   3 C :   -0.001868
   4 O :   -0.504713
   5 H :    0.157059
   6 H :    0.146996
   7 H :    0.142703
   8 H :    0.141742
   9 H :    0.160913
  10 H :    0.154343
  11 H :    0.142119
  12 C :    0.002396
  13 H :    0.149424
  14 H :    0.146534
  15 O :   -0.520247
  16 C :    0.025525
  17 C :    0.090755
  18 C :   -0.306474
  19 C :   -0.028670
  20 O :   -0.529383
  21 H :    0.159794
  22 O :   -0.606306
  23 H :    0.177605
  24 H :    0.165570
  25 H :    0.156688
  26 H :    0.149681
  27 H :    0.147377
  28 H :    0.363554
Sum of atomic charges:   -0.0000000

LOEWDIN ATOMIC CHARGES
----------------------
   0 C :    0.173903
   1 C :   -0.230576
   2 C :   -0.215947
   3 C :   -0.024903
   4 O :   -0.303654
   5 H :    0.102243
   6 H :    0.115021
   7 H :    0.113908
   8 H :    0.114270
   9 H :    0.118520
  10 H :    0.109411
  11 H :    0.102575
  12 C :   -0.042564
  13 H :    0.111903
  14 H :    0.102505
  15 O :   -0.336059
  16 C :   -0.001645
  17 C :    0.033738
  18 C :   -0.240638
  19 C :   -0.036683
  20 O :   -0.327183
  21 H :    0.111139
  22 O :   -0.414348
  23 H :    0.125464
  24 H :    0.128583
  25 H :    0.119311
  26 H :    0.105786
  27 H :    0.103363
  28 H :    0.282554

  Mayer bond orders larger than 0.100000
B(  0-C ,  1-C ) :   0.9282 B(  0-C ,  4-O ) :   0.9320 B(  0-C ,  5-H ) :   0.9083
B(  0-C , 15-O ) :   0.8297 B(  1-C ,  2-C ) :   0.9520 B(  1-C ,  6-H ) :   0.9343
B(  1-C ,  7-H ) :   0.9362 B(  2-C ,  3-C ) :   0.9556 B(  2-C ,  8-H ) :   0.9449
B(  2-C ,  9-H ) :   0.9446 B(  3-C ,  4-O ) :   0.8352 B(  3-C , 10-H ) :   0.9347
B(  3-C , 11-H ) :   0.9397 B( 12-C , 13-H ) :   0.9347 B( 12-C , 14-H ) :   0.9150
B( 12-C , 15-O ) :   0.8437 B( 12-C , 16-C ) :   0.8868 B( 16-C , 17-C ) :   0.8985
B( 16-C , 20-O ) :   0.8331 B( 16-C , 21-H ) :   0.9232 B( 17-C , 18-C ) :   0.9122
B( 17-C , 22-O ) :   0.8828 B( 17-C , 23-H ) :   0.9229 B( 18-C , 19-C ) :   0.9406
B( 18-C , 24-H ) :   0.9374 B( 18-C , 25-H ) :   0.9325 B( 19-C , 20-O ) :   0.8377
B( 19-C , 26-H ) :   0.9351 B( 19-C , 27-H ) :   0.9385 B( 22-O , 28-H ) :   0.7961

FINAL SINGLE POINT ENERGY      -652.856430011873

DIPOLE MOMENT
-------------
                                X             Y             Z
Electronic contribution:      0.09801      -2.63111      -1.01439
Nuclear contribution   :     -0.42628       3.23908       0.61695
                        -----------------------------------------
Total Dipole Moment    :     -0.32827       0.60797      -0.39744
                        -----------------------------------------
Magnitude (a.u.)       :      0.79708
Magnitude (Debye)      :      2.02603

Rotational constants in cm-1:     0.060481     0.013022     0.012378
Rotational constants in MHz :  1813.169086   390.382877   371.084066

                             ****ORCA TERMINATED NORMALLY****
TOTAL RUN TIME: 0 days 0 hours 29 minutes 33 seconds 819 msec
