                         Program Version 4.2.0 -  RELEASE  -
|  1> # Test redundant internal optimization
|  2> #
|  3> ! RKS B3LYP  Opt TightSCF SmallPrint
|  4>
|  5> %basis
|  6>         Basis "6-31G"
|  7> end
|  8>
|  9> %geom
| 10> Constraints
| 11> { D 4  0  15  12  45.0   C } # D for Dihedral angle
| 12> { D 0  15  12  16  210.0   C } # D for Dihedral angle
| 13> { D 0  4  3  2   C } # D for Dihedral angle
| 14> { D 4  3  2  1   C } # D for Dihedral angle
| 15> { D 3  2  1  0   C } # D for Dihedral angle
| 16> { D 2  1  0  4   C } # D for Dihedral angle
| 17> { D 1  0  4  3   C } # D for Dihedral angle
| 18> { D 16  20  19  18   C } # D for Dihedral angle
| 19> { D 20  19  18  17   C } # D for Dihedral angle
| 20> { D 19  18  17  16   C } # D for Dihedral angle
| 21> { D 18  17  16  20   C } # D for Dihedral angle
| 22> { D 17  16  20  19   C } # D for Dihedral angle
| 23> { D 15  12  16  20   C } # D for Dihedral angle
| 24> end
| 25> end
| 26>
| 27>
| 28> #%pal
| 29> #nprocs 8
| 30> #end
| 31>
| 32> * xyz 0 1
| 33> C  -21.048   26.222   46.251
| 34> C  -20.361   27.558   45.944
| 35> C  -20.329   28.222   47.341
| 36> C  -20.110   27.022   48.296
| 37> O  -20.473   25.807   47.535
| 38> H  -20.833   25.428   45.533
| 39> H  -19.344   27.382   45.576
| 40> H  -20.898   28.157   45.201
| 41> H  -19.543   28.978   47.434
| 42> H  -21.289   28.710   47.548
| 43> H  -20.733   27.082   49.195
| 44> H  -19.064   26.913   48.597
| 45> C  -23.065   27.161   47.638
| 46> H  -22.349   26.999   48.453
| 47> H  -23.116   28.239   47.436
| 48> O  -22.586   26.394   46.375
| 49> C  -24.469   26.704   48.122
| 50> C  -25.509   26.818   47.001
| 51> C  -25.212   25.547   46.169
| 52> C  -24.805   24.509   47.244
| 53> O  -24.455   25.277   48.459
| 54> H  -24.727   27.246   49.034
| 55> O  -26.942   26.760   47.596
| 56> H  -25.414   27.739   46.417
| 57> H  -26.071   25.218   45.575
| 58> H  -24.381   25.734   45.479
| 59> H  -23.944   23.905   46.940
| 60> H  -25.629   23.841   47.512
| 61> H  -27.060   25.844   48.186
| 62> *
| 63>
| 64>                          ****END OF INPUT****
 Total Charge           Charge          ....    0
 Multiplicity           Mult            ....    1
 Number of Electrons    NEL             ....  102
FINAL SINGLE POINT ENERGY      -652.823583427166
FINAL SINGLE POINT ENERGY      -652.848418546776
FINAL SINGLE POINT ENERGY      -652.857715755428
FINAL SINGLE POINT ENERGY      -652.859719594533
FINAL SINGLE POINT ENERGY      -652.860029907791
FINAL SINGLE POINT ENERGY      -652.860084951407
FINAL SINGLE POINT ENERGY      -652.860087118763
                    ***********************HURRAY********************

CARTESIAN COORDINATES (ANGSTROEM)
---------------------------------
  C    -21.154984   26.321211   46.437971
  C    -20.383240   27.565023   45.980508
  C    -20.095733   28.282160   47.329349
  C    -19.874666   27.098422   48.302506
  O    -20.466786   25.907876   47.637001
  H    -21.083189   25.487938   45.737675
  H    -19.449759   27.246979   45.503649
  H    -20.952459   28.174335   45.274229
  H    -19.219979   28.936164   47.277083
  H    -20.950528   28.895001   47.631766
  H    -20.353005   27.237126   49.276333
  H    -18.814660   26.875731   48.455482
  C    -23.151588   27.188981   47.717089
  H    -22.517342   27.025135   48.593458
  H    -23.226523   28.267646   47.515598
  O    -22.588138   26.488306   46.573389
  C    -24.539183   26.635552   48.047843
  C    -25.601950   26.734247   46.943880
  C    -25.297378   25.469115   46.097257
  C    -24.853500   24.436836   47.162514
  O    -24.495793   25.212719   48.374668
  H    -24.889241   27.157971   48.946758
  O    -26.939943   26.710401   47.518190
  H    -25.555035   27.660165   46.369757
  H    -26.184248   25.154368   45.539555
  H    -24.480715   25.683563   45.407126
  H    -23.979674   23.861021   46.847497
  H    -25.654746   23.747049   47.448432
  H    -27.005015   25.954962   48.140438

 Multiplicity           Mult            ....    1
 Number of Electrons    NEL             ....  102
 Basis Dimension        Dim             ....  149

ORBITAL ENERGIES
----------------

  NO   OCC          E(Eh)            E(eV)
   0   2.0000     -19.149729      -521.0906
   1   2.0000     -19.147595      -521.0326
   2   2.0000     -19.132953      -520.6341
   3   2.0000     -19.131684      -520.5996
   4   2.0000     -10.283300      -279.8228
   5   2.0000     -10.234942      -278.5069
   6   2.0000     -10.233343      -278.4634
   7   2.0000     -10.232950      -278.4527
   8   2.0000     -10.230964      -278.3987
   9   2.0000     -10.217955      -278.0447
  10   2.0000     -10.197170      -277.4791
  11   2.0000     -10.192375      -277.3486
  12   2.0000     -10.171947      -276.7927
  13   2.0000      -1.058051       -28.7910
  14   2.0000      -1.028922       -27.9984
  15   2.0000      -1.002895       -27.2902
  16   2.0000      -0.994184       -27.0531
  17   2.0000      -0.793282       -21.5863
  18   2.0000      -0.778584       -21.1863
  19   2.0000      -0.761769       -20.7288
  20   2.0000      -0.735200       -20.0058
  21   2.0000      -0.674919       -18.3655
  22   2.0000      -0.608205       -16.5501
  23   2.0000      -0.603735       -16.4285
  24   2.0000      -0.592888       -16.1333
  25   2.0000      -0.568225       -15.4622
  26   2.0000      -0.524258       -14.2658
  27   2.0000      -0.511166       -13.9095
  28   2.0000      -0.498302       -13.5595
  29   2.0000      -0.483379       -13.1534
  30   2.0000      -0.478089       -13.0095
  31   2.0000      -0.458673       -12.4811
  32   2.0000      -0.448630       -12.2078
  33   2.0000      -0.437003       -11.8914
  34   2.0000      -0.423524       -11.5247
  35   2.0000      -0.411881       -11.2079
  36   2.0000      -0.399887       -10.8815
  37   2.0000      -0.383506       -10.4357
  38   2.0000      -0.383170       -10.4266
  39   2.0000      -0.366486        -9.9726
  40   2.0000      -0.364849        -9.9281
  41   2.0000      -0.359106        -9.7718
  42   2.0000      -0.348681        -9.4881
  43   2.0000      -0.326292        -8.8789
  44   2.0000      -0.323327        -8.7982
  45   2.0000      -0.310672        -8.4538
  46   2.0000      -0.296528        -8.0689
  47   2.0000      -0.270217        -7.3530
  48   2.0000      -0.262772        -7.1504
  49   2.0000      -0.256568        -6.9816
  50   2.0000      -0.237511        -6.4630
  51   0.0000       0.068240         1.8569
  52   0.0000       0.076832         2.0907
  53   0.0000       0.089173         2.4265
  54   0.0000       0.104151         2.8341
  55   0.0000       0.107401         2.9225

MULLIKEN ATOMIC CHARGES
-----------------------
   0 C :    0.302721
   1 C :   -0.267176
   2 C :   -0.312946
   3 C :   -0.019250
   4 O :   -0.501465
   5 H :    0.163036
   6 H :    0.152261
   7 H :    0.152617
   8 H :    0.149144
   9 H :    0.148984
  10 H :    0.147931
  11 H :    0.151828
  12 C :   -0.006983
  13 H :    0.162456
  14 H :    0.126064
  15 O :   -0.530805
  16 C :    0.065874
  17 C :    0.076527
  18 C :   -0.285482
  19 C :   -0.019375
  20 O :   -0.521429
  21 H :    0.153246
  22 O :   -0.603811
  23 H :    0.147190
  24 H :    0.144914
  25 H :    0.175363
  26 H :    0.153324
  27 H :    0.133709
  28 H :    0.361531
Sum of atomic charges:   -0.0000000

LOEWDIN ATOMIC CHARGES
----------------------
   0 C :    0.178342
   1 C :   -0.227592
   2 C :   -0.223407
   3 C :   -0.034547
   4 O :   -0.314248
   5 H :    0.112003
   6 H :    0.119120
   7 H :    0.120781
   8 H :    0.118010
   9 H :    0.110308
  10 H :    0.102768
  11 H :    0.106922
  12 C :   -0.043038
  13 H :    0.113949
  14 H :    0.092485
  15 O :   -0.326876
  16 C :    0.014336
  17 C :    0.038612
  18 C :   -0.242001
  19 C :   -0.032835
  20 O :   -0.326303
  21 H :    0.114549
  22 O :   -0.418178
  23 H :    0.113803
  24 H :    0.116599
  25 H :    0.130858
  26 H :    0.109249
  27 H :    0.094979
  28 H :    0.281353

  Mayer bond orders larger than 0.100000
B(  0-C ,  1-C ) :   0.9169 B(  0-C ,  4-O ) :   0.9132 B(  0-C ,  5-H ) :   0.9363
B(  0-C , 15-O ) :   0.8745 B(  1-C ,  2-C ) :   0.9558 B(  1-C ,  6-H ) :   0.9349
B(  1-C ,  7-H ) :   0.9374 B(  2-C ,  3-C ) :   0.9485 B(  2-C ,  8-H ) :   0.9448
B(  2-C ,  9-H ) :   0.9420 B(  3-C ,  4-O ) :   0.8374 B(  3-C , 10-H ) :   0.9302
B(  3-C , 11-H ) :   0.9392 B( 12-C , 13-H ) :   0.9077 B( 12-C , 14-H ) :   0.9084
B( 12-C , 15-O ) :   0.8414 B( 12-C , 16-C ) :   0.8983 B( 16-C , 17-C ) :   0.9094
B( 16-C , 20-O ) :   0.8791 B( 16-C , 21-H ) :   0.9222 B( 17-C , 18-C ) :   0.9255
B( 17-C , 22-O ) :   0.8900 B( 17-C , 23-H ) :   0.9366 B( 18-C , 19-C ) :   0.9462
B( 18-C , 24-H ) :   0.9375 B( 18-C , 25-H ) :   0.9184 B( 19-C , 20-O ) :   0.8396
B( 19-C , 26-H ) :   0.9338 B( 19-C , 27-H ) :   0.9370 B( 22-O , 28-H ) :   0.7966

FINAL SINGLE POINT ENERGY      -652.860084646069

DIPOLE MOMENT
-------------
                                X             Y             Z
Electronic contribution:     -3.32400      -3.03945       1.58196
Nuclear contribution   :      4.34315       3.82923      -1.95811
                        -----------------------------------------
Total Dipole Moment    :      1.01915       0.78978      -0.37615
                        -----------------------------------------
Magnitude (a.u.)       :      1.34310
Magnitude (Debye)      :      3.41388

Rotational constants in cm-1:     0.060422     0.013701     0.013424
Rotational constants in MHz :  1811.419512   410.757695   402.455521

                             ****ORCA TERMINATED NORMALLY****
TOTAL RUN TIME: 0 days 0 hours 21 minutes 54 seconds 240 msec
