                         Program Version 4.2.0 -  RELEASE  -
|  1> # Test redundant internal optimization
|  2> #
|  3> ! RKS B3LYP  Opt TightSCF SmallPrint
|  4>
|  5> %basis
|  6>         Basis "6-31G"
|  7> end
|  8>
|  9> %geom
| 10> Constraints
| 11> { D 4  0  15  12  210.0   C } # D for Dihedral angle
| 12> { D 0  15  12  16  210.0   C } # D for Dihedral angle
| 13> { D 0  4  3  2   C } # D for Dihedral angle
| 14> { D 4  3  2  1   C } # D for Dihedral angle
| 15> { D 3  2  1  0   C } # D for Dihedral angle
| 16> { D 2  1  0  4   C } # D for Dihedral angle
| 17> { D 1  0  4  3   C } # D for Dihedral angle
| 18> { D 16  20  19  18   C } # D for Dihedral angle
| 19> { D 20  19  18  17   C } # D for Dihedral angle
| 20> { D 19  18  17  16   C } # D for Dihedral angle
| 21> { D 18  17  16  20   C } # D for Dihedral angle
| 22> { D 17  16  20  19   C } # D for Dihedral angle
| 23> { D 15  12  16  20   C } # D for Dihedral angle
| 24> end
| 25> end
| 26>
| 27>
| 28> #%pal
| 29> #nprocs 8
| 30> #end
| 31>
| 32> * xyz 0 1
| 33> C  -21.048   26.222   46.251
| 34> C  -20.361   27.558   45.944
| 35> C  -20.329   28.222   47.341
| 36> C  -20.110   27.022   48.296
| 37> O  -20.473   25.807   47.535
| 38> H  -20.833   25.428   45.533
| 39> H  -19.344   27.382   45.576
| 40> H  -20.898   28.157   45.201
| 41> H  -19.543   28.978   47.434
| 42> H  -21.289   28.710   47.548
| 43> H  -20.733   27.082   49.195
| 44> H  -19.064   26.913   48.597
| 45> C  -23.389   26.110   45.076
| 46> H  -22.765   26.347   44.205
| 47> H  -23.668   25.050   45.021
| 48> O  -22.586   26.394   46.375
| 49> C  -24.695   26.948   44.982
| 50> C  -25.581   26.737   46.215
| 51> C  -24.890   27.648   47.258
| 52> C  -24.389   28.840   46.406
| 53> O  -24.387   28.381   44.999
| 54> H  -25.187   26.737   44.031
| 55> H  -26.599   27.087   46.011
| 56> O  -25.655   25.253   46.668
| 57> H  -25.564   27.962   48.061
| 58> H  -24.045   27.120   47.718
| 59> H  -23.377   29.158   46.681
| 60> H  -25.058   29.704   46.461
| 61> H  -24.646   24.881   46.878
| 62> *
| 63>
| 64>                          ****END OF INPUT****
 Total Charge           Charge          ....    0
 Multiplicity           Mult            ....    1
 Number of Electrons    NEL             ....  102
FINAL SINGLE POINT ENERGY      -652.833923278277
FINAL SINGLE POINT ENERGY      -652.857132661534
FINAL SINGLE POINT ENERGY      -652.861269921476
FINAL SINGLE POINT ENERGY      -652.862689444103
FINAL SINGLE POINT ENERGY      -652.862819037318
FINAL SINGLE POINT ENERGY      -652.862840758819
FINAL SINGLE POINT ENERGY      -652.862841565286
                    ***********************HURRAY********************

CARTESIAN COORDINATES (ANGSTROEM)
---------------------------------
  C    -21.055386   26.204717   46.185636
  C    -20.374642   27.540523   45.897333
  C    -20.360850   28.200471   47.295883
  C    -20.147582   27.001416   48.243478
  O    -20.505268   25.795320   47.446250
  H    -20.846346   25.406031   45.467295
  H    -19.354659   27.359849   45.538357
  H    -20.912473   28.133085   45.152347
  H    -19.575634   28.955850   47.395450
  H    -21.324746   28.679826   47.488611
  H    -20.782054   27.031887   49.132523
  H    -19.104103   26.875661   48.545871
  C    -23.262342   26.106349   45.104299
  H    -22.658109   26.359677   44.223037
  H    -23.526905   25.041062   45.050949
  O    -22.498799   26.370529   46.320789
  C    -24.533881   26.945146   45.055228
  C    -25.517846   26.711846   46.214609
  C    -24.959647   27.672275   47.308952
  C    -24.442189   28.865764   46.479015
  O    -24.296525   28.381937   45.080260
  H    -25.011421   26.731374   44.090967
  H    -26.526647   26.998596   45.910966
  O    -25.627632   25.330267   46.631999
  H    -25.728422   27.962016   48.031335
  H    -24.138445   27.175212   47.830241
  H    -23.473710   29.235353   46.825795
  H    -25.153224   29.697685   46.449746
  H    -24.806512   25.068275   47.099779

 Multiplicity           Mult            ....    1
 Number of Electrons    NEL             ....  102
 Basis Dimension        Dim             ....  149

ORBITAL ENERGIES
----------------

  NO   OCC          E(Eh)            E(eV)
   0   2.0000     -19.148927      -521.0688
   1   2.0000     -19.145995      -520.9890
   2   2.0000     -19.137732      -520.7642
   3   2.0000     -19.136882      -520.7410
   4   2.0000     -10.284763      -279.8626
   5   2.0000     -10.236041      -278.5368
   6   2.0000     -10.234399      -278.4922
   7   2.0000     -10.232176      -278.4317
   8   2.0000     -10.229851      -278.3684
   9   2.0000     -10.224213      -278.2150
  10   2.0000     -10.190382      -277.2944
  11   2.0000     -10.188331      -277.2386
  12   2.0000     -10.179205      -276.9903
  13   2.0000      -1.058280       -28.7973
  14   2.0000      -1.027692       -27.9649
  15   2.0000      -1.009457       -27.4687
  16   2.0000      -0.998714       -27.1764
  17   2.0000      -0.790501       -21.5106
  18   2.0000      -0.773749       -21.0548
  19   2.0000      -0.766760       -20.8646
  20   2.0000      -0.734539       -19.9878
  21   2.0000      -0.679425       -18.4881
  22   2.0000      -0.604490       -16.4490
  23   2.0000      -0.602276       -16.3888
  24   2.0000      -0.595750       -16.2112
  25   2.0000      -0.574714       -15.6388
  26   2.0000      -0.529006       -14.3950
  27   2.0000      -0.507132       -13.7998
  28   2.0000      -0.497367       -13.5340
  29   2.0000      -0.489782       -13.3277
  30   2.0000      -0.475782       -12.9467
  31   2.0000      -0.461397       -12.5553
  32   2.0000      -0.443346       -12.0641
  33   2.0000      -0.435356       -11.8466
  34   2.0000      -0.423775       -11.5315
  35   2.0000      -0.414222       -11.2716
  36   2.0000      -0.403170       -10.9708
  37   2.0000      -0.398064       -10.8319
  38   2.0000      -0.377228       -10.2649
  39   2.0000      -0.375662       -10.2223
  40   2.0000      -0.359894        -9.7932
  41   2.0000      -0.356132        -9.6908
  42   2.0000      -0.351574        -9.5668
  43   2.0000      -0.326845        -8.8939
  44   2.0000      -0.318422        -8.6647
  45   2.0000      -0.313576        -8.5328
  46   2.0000      -0.305409        -8.3106
  47   2.0000      -0.268704        -7.3118
  48   2.0000      -0.264665        -7.2019
  49   2.0000      -0.256356        -6.9758
  50   2.0000      -0.240299        -6.5389
  51   0.0000       0.065237         1.7752
  52   0.0000       0.074470         2.0264
  53   0.0000       0.089310         2.4303
  54   0.0000       0.095468         2.5978
  55   0.0000       0.105702         2.8763

MULLIKEN ATOMIC CHARGES
-----------------------
   0 C :    0.293475
   1 C :   -0.263131
   2 C :   -0.311417
   3 C :   -0.004041
   4 O :   -0.505196
   5 H :    0.143197
   6 H :    0.144637
   7 H :    0.162285
   8 H :    0.145493
   9 H :    0.165514
  10 H :    0.150488
  11 H :    0.145175
  12 C :   -0.027571
  13 H :    0.142373
  14 H :    0.144574
  15 O :   -0.529714
  16 C :    0.094818
  17 C :    0.089211
  18 C :   -0.312978
  19 C :   -0.012888
  20 O :   -0.524870
  21 H :    0.147567
  22 H :    0.160297
  23 O :   -0.609272
  24 H :    0.144124
  25 H :    0.172158
  26 H :    0.143176
  27 H :    0.143126
  28 H :    0.369390
Sum of atomic charges:   -0.0000000

LOEWDIN ATOMIC CHARGES
----------------------
   0 C :    0.179495
   1 C :   -0.226700
   2 C :   -0.217202
   3 C :   -0.025997
   4 O :   -0.307958
   5 H :    0.099009
   6 H :    0.114127
   7 H :    0.124685
   8 H :    0.116327
   9 H :    0.115673
  10 H :    0.107200
  11 H :    0.104198
  12 C :   -0.049363
  13 H :    0.103239
  14 H :    0.103827
  15 O :   -0.347338
  16 C :    0.018211
  17 C :    0.038636
  18 C :   -0.243051
  19 C :   -0.025936
  20 O :   -0.325479
  21 H :    0.114105
  22 H :    0.115534
  23 O :   -0.411837
  24 H :    0.115246
  25 H :    0.124931
  26 H :    0.099353
  27 H :    0.101344
  28 H :    0.285725

  Mayer bond orders larger than 0.100000
B(  0-C ,  1-C ) :   0.9333 B(  0-C ,  4-O ) :   0.9391 B(  0-C ,  5-H ) :   0.9206
B(  0-C , 15-O ) :   0.8214 B(  1-C ,  2-C ) :   0.9536 B(  1-C ,  6-H ) :   0.9338
B(  1-C ,  7-H ) :   0.9318 B(  2-C ,  3-C ) :   0.9542 B(  2-C ,  8-H ) :   0.9446
B(  2-C ,  9-H ) :   0.9356 B(  3-C ,  4-O ) :   0.8349 B(  3-C , 10-H ) :   0.9350
B(  3-C , 11-H ) :   0.9394 B( 12-C , 13-H ) :   0.9204 B( 12-C , 14-H ) :   0.9053
B( 12-C , 15-O ) :   0.8349 B( 12-C , 16-C ) :   0.9114 B( 16-C , 17-C ) :   0.8879
B( 16-C , 20-O ) :   0.8766 B( 16-C , 21-H ) :   0.9275 B( 17-C , 18-C ) :   0.9326
B( 17-C , 22-H ) :   0.9369 B( 17-C , 23-O ) :   0.9033 B( 18-C , 19-C ) :   0.9466
B( 18-C , 24-H ) :   0.9408 B( 18-C , 25-H ) :   0.9257 B( 19-C , 20-O ) :   0.8373
B( 19-C , 26-H ) :   0.9249 B( 19-C , 27-H ) :   0.9371 B( 23-O , 28-H ) :   0.7893

FINAL SINGLE POINT ENERGY      -652.862840166642

DIPOLE MOMENT
-------------
                                X             Y             Z
Electronic contribution:     -2.49184      -3.86775      -1.46232
Nuclear contribution   :      3.27262       4.56437       1.54744
                        -----------------------------------------
Total Dipole Moment    :      0.78078       0.69661       0.08513
                        -----------------------------------------
Magnitude (a.u.)       :      1.04983
Magnitude (Debye)      :      2.66845

Rotational constants in cm-1:     0.044805     0.016796     0.015682
Rotational constants in MHz :  1343.228287   503.535343   470.129417

                             ****ORCA TERMINATED NORMALLY****
TOTAL RUN TIME: 0 days 1 hours 2 minutes 2 seconds 580 msec
