                         Program Version 4.2.0 -  RELEASE  -
|  1> # Test redundant internal optimization
|  2> #
|  3> ! RKS B3LYP  Opt TightSCF SmallPrint
|  4>
|  5> %basis
|  6>         Basis "6-31G"
|  7> end
|  8>
|  9> %geom
| 10> Constraints
| 11> { D 4  0  15  12  225.0   C } # D for Dihedral angle
| 12> { D 0  15  12  16  15.0   C } # D for Dihedral angle
| 13> { D 0  4  3  2   C } # D for Dihedral angle
| 14> { D 4  3  2  1   C } # D for Dihedral angle
| 15> { D 3  2  1  0   C } # D for Dihedral angle
| 16> { D 2  1  0  4   C } # D for Dihedral angle
| 17> { D 1  0  4  3   C } # D for Dihedral angle
| 18> { D 16  20  19  18   C } # D for Dihedral angle
| 19> { D 20  19  18  17   C } # D for Dihedral angle
| 20> { D 19  18  17  16   C } # D for Dihedral angle
| 21> { D 18  17  16  20   C } # D for Dihedral angle
| 22> { D 17  16  20  19   C } # D for Dihedral angle
| 23> { D 15  12  16  20   C } # D for Dihedral angle
| 24> end
| 25> end
| 26>
| 27>
| 28> #%pal
| 29> #nprocs 8
| 30> #end
| 31>
| 32> * xyz 0 1
| 33> C  -21.048   26.222   46.251
| 34> C  -20.361   27.558   45.944
| 35> C  -20.329   28.222   47.341
| 36> C  -20.110   27.022   48.296
| 37> O  -20.473   25.807   47.535
| 38> H  -20.833   25.428   45.533
| 39> H  -19.344   27.382   45.576
| 40> H  -20.898   28.157   45.201
| 41> H  -19.543   28.978   47.434
| 42> H  -21.289   28.710   47.548
| 43> H  -20.733   27.082   49.195
| 44> H  -19.064   26.913   48.597
| 45> C  -23.415   25.773   45.218
| 46> H  -24.272   25.231   45.637
| 47> H  -23.798   26.559   44.554
| 48> O  -22.586   26.394   46.375
| 49> C  -22.589   24.783   44.350
| 50> C  -23.402   24.280   43.153
| 51> C  -23.291   25.472   42.174
| 52> C  -21.861   26.008   42.434
| 53> O  -21.442   25.468   43.745
| 54> H  -22.190   23.994   44.990
| 55> H  -22.933   23.385   42.728
| 56> O  -24.873   23.935   43.516
| 57> H  -23.443   25.180   41.130
| 58> H  -24.039   26.234   42.422
| 59> H  -21.823   27.103   42.469
| 60> H  -21.140   25.652   41.693
| 61> H  -25.364   24.816   43.943
| 62> *
| 63>
| 64>                          ****END OF INPUT****
 Total Charge           Charge          ....    0
 Multiplicity           Mult            ....    1
 Number of Electrons    NEL             ....  102
FINAL SINGLE POINT ENERGY      -652.819562955773
FINAL SINGLE POINT ENERGY      -652.841986985545
FINAL SINGLE POINT ENERGY      -652.850411626667
FINAL SINGLE POINT ENERGY      -652.852298581335
FINAL SINGLE POINT ENERGY      -652.852612021198
FINAL SINGLE POINT ENERGY      -652.852674818983
FINAL SINGLE POINT ENERGY      -652.852680800306
FINAL SINGLE POINT ENERGY      -652.852681887977
                    ***********************HURRAY********************

CARTESIAN COORDINATES (ANGSTROEM)
---------------------------------
  C    -20.856646   26.229120   46.248721
  C    -20.248285   27.616906   46.050477
  C    -20.428646   28.249031   47.451792
  C    -20.227542   27.045365   48.399287
  O    -20.409594   25.835764   47.560419
  H    -20.522990   25.473935   45.543476
  H    -19.185454   27.515948   45.799801
  H    -20.744471   28.176009   45.254010
  H    -19.717900   29.057726   47.646804
  H    -21.443681   28.645969   47.546615
  H    -20.951179   27.018067   49.218539
  H    -19.214268   26.993863   48.810314
  C    -23.174766   25.802321   45.240438
  H    -24.004362   25.311216   45.762289
  H    -23.581003   26.656897   44.676537
  O    -22.310964   26.340917   46.276703
  C    -22.562868   24.796177   44.265473
  C    -23.541306   24.318017   43.176518
  C    -23.434334   25.464102   42.123175
  C    -21.946805   25.874101   42.216283
  O    -21.437550   25.348879   43.511710
  H    -22.157735   23.950163   44.829537
  H    -23.175210   23.380147   42.754481
  O    -24.881554   24.015788   43.623953
  H    -23.719876   25.129828   41.122524
  H    -24.098611   26.289719   42.407713
  H    -21.799678   26.958029   42.191730
  H    -21.340915   25.417160   41.429235
  H    -25.367807   24.836837   43.843445

 Multiplicity           Mult            ....    1
 Number of Electrons    NEL             ....  102
 Basis Dimension        Dim             ....  149

ORBITAL ENERGIES
----------------

  NO   OCC          E(Eh)            E(eV)
   0   2.0000     -19.156168      -521.2658
   1   2.0000     -19.151375      -521.1354
   2   2.0000     -19.129007      -520.5268
   3   2.0000     -19.125833      -520.4404
   4   2.0000     -10.263237      -279.2769
   5   2.0000     -10.253477      -279.0113
   6   2.0000     -10.240611      -278.6612
   7   2.0000     -10.239684      -278.6360
   8   2.0000     -10.233077      -278.4562
   9   2.0000     -10.213558      -277.9250
  10   2.0000     -10.202919      -277.6355
  11   2.0000     -10.174717      -276.8681
  12   2.0000     -10.172189      -276.7993
  13   2.0000      -1.045136       -28.4396
  14   2.0000      -1.036015       -28.1914
  15   2.0000      -1.024933       -27.8899
  16   2.0000      -0.980475       -26.6801
  17   2.0000      -0.791341       -21.5335
  18   2.0000      -0.776805       -21.1379
  19   2.0000      -0.767650       -20.8888
  20   2.0000      -0.727541       -19.7974
  21   2.0000      -0.680985       -18.5306
  22   2.0000      -0.620711       -16.8904
  23   2.0000      -0.602562       -16.3965
  24   2.0000      -0.586484       -15.9590
  25   2.0000      -0.560403       -15.2493
  26   2.0000      -0.538758       -14.6604
  27   2.0000      -0.513116       -13.9626
  28   2.0000      -0.493874       -13.4390
  29   2.0000      -0.475022       -12.9260
  30   2.0000      -0.474489       -12.9115
  31   2.0000      -0.454720       -12.3736
  32   2.0000      -0.439696       -11.9647
  33   2.0000      -0.437080       -11.8935
  34   2.0000      -0.432538       -11.7699
  35   2.0000      -0.422749       -11.5036
  36   2.0000      -0.406969       -11.0742
  37   2.0000      -0.393286       -10.7019
  38   2.0000      -0.388156       -10.5623
  39   2.0000      -0.366900        -9.9838
  40   2.0000      -0.357400        -9.7254
  41   2.0000      -0.345853        -9.4111
  42   2.0000      -0.341296        -9.2871
  43   2.0000      -0.335537        -9.1304
  44   2.0000      -0.326072        -8.8729
  45   2.0000      -0.302153        -8.2220
  46   2.0000      -0.299197        -8.1416
  47   2.0000      -0.279675        -7.6103
  48   2.0000      -0.254701        -6.9308
  49   2.0000      -0.249882        -6.7996
  50   2.0000      -0.232429        -6.3247
  51   0.0000       0.045272         1.2319
  52   0.0000       0.067893         1.8475
  53   0.0000       0.084307         2.2941
  54   0.0000       0.095102         2.5878
  55   0.0000       0.102481         2.7887

MULLIKEN ATOMIC CHARGES
-----------------------
   0 C :    0.278933
   1 C :   -0.246776
   2 C :   -0.299558
   3 C :    0.000643
   4 O :   -0.505190
   5 H :    0.182391
   6 H :    0.140131
   7 H :    0.137423
   8 H :    0.134655
   9 H :    0.157616
  10 H :    0.147558
  11 H :    0.136224
  12 C :    0.027486
  13 H :    0.148683
  14 H :    0.114237
  15 O :   -0.541385
  16 C :    0.046103
  17 C :    0.091223
  18 C :   -0.324358
  19 C :   -0.009685
  20 O :   -0.525496
  21 H :    0.172770
  22 H :    0.170661
  23 O :   -0.596154
  24 H :    0.159241
  25 H :    0.139540
  26 H :    0.148455
  27 H :    0.155274
  28 H :    0.359355
Sum of atomic charges:   -0.0000000

LOEWDIN ATOMIC CHARGES
----------------------
   0 C :    0.176404
   1 C :   -0.219191
   2 C :   -0.218448
   3 C :   -0.026953
   4 O :   -0.314684
   5 H :    0.116663
   6 H :    0.111435
   7 H :    0.113564
   8 H :    0.110424
   9 H :    0.116855
  10 H :    0.105339
  11 H :    0.099182
  12 C :   -0.040070
  13 H :    0.111852
  14 H :    0.085858
  15 O :   -0.337785
  16 C :    0.002276
  17 C :    0.041144
  18 C :   -0.241096
  19 C :   -0.029256
  20 O :   -0.327699
  21 H :    0.120255
  22 H :    0.121018
  23 O :   -0.402480
  24 H :    0.124125
  25 H :    0.106808
  26 H :    0.104988
  27 H :    0.109139
  28 H :    0.280335

  Mayer bond orders larger than 0.100000
B(  0-C ,  1-C ) :   0.9399 B(  0-C ,  4-O ) :   0.9164 B(  0-C ,  5-H ) :   0.9001
B(  0-C , 15-O ) :   0.8215 B(  1-C ,  2-C ) :   0.9549 B(  1-C ,  6-H ) :   0.9377
B(  1-C ,  7-H ) :   0.9417 B(  2-C ,  3-C ) :   0.9545 B(  2-C ,  8-H ) :   0.9461
B(  2-C ,  9-H ) :   0.9443 B(  3-C ,  4-O ) :   0.8430 B(  3-C , 10-H ) :   0.9352
B(  3-C , 11-H ) :   0.9402 B( 12-C , 13-H ) :   0.9123 B( 12-C , 14-H ) :   0.9218
B( 12-C , 15-O ) :   0.8617 B( 12-C , 16-C ) :   0.9036 B( 16-C , 17-C ) :   0.8734
B( 16-C , 20-O ) :   0.8345 B( 16-C , 21-H ) :   0.9239 B( 17-C , 18-C ) :   0.9201
B( 17-C , 22-H ) :   0.9331 B( 17-C , 23-O ) :   0.9067 B( 18-C , 19-C ) :   0.9410
B( 18-C , 24-H ) :   0.9418 B( 18-C , 25-H ) :   0.9393 B( 19-C , 20-O ) :   0.8356
B( 19-C , 26-H ) :   0.9320 B( 19-C , 27-H ) :   0.9374 B( 23-O , 28-H ) :   0.7962

FINAL SINGLE POINT ENERGY      -652.852681846759

DIPOLE MOMENT
-------------
                                X             Y             Z
Electronic contribution:     -0.97004      -4.84810       1.19549
Nuclear contribution   :      0.63403       5.89714      -2.39446
                        -----------------------------------------
Total Dipole Moment    :     -0.33600       1.04904      -1.19897
                        -----------------------------------------
Magnitude (a.u.)       :      1.62817
Magnitude (Debye)      :      4.13847

Rotational constants in cm-1:     0.060094     0.013238     0.012072
Rotational constants in MHz :  1801.566951   396.879089   361.905390

                             ****ORCA TERMINATED NORMALLY****
TOTAL RUN TIME: 0 days 1 hours 18 minutes 35 seconds 102 msec
