                         Program Version 4.2.0 -  RELEASE  -
|  1> # Test redundant internal optimization
|  2> #
|  3> ! RKS B3LYP  Opt TightSCF SmallPrint
|  4>
|  5> %basis
|  6>         Basis "6-31G"
|  7> end
|  8>
|  9> %geom
| 10> Constraints
| 11> { D 4  0  15  12  210.0   C } # D for Dihedral angle
| 12> { D 0  15  12  16  135.0   C } # D for Dihedral angle
| 13> { D 0  4  3  2   C } # D for Dihedral angle
| 14> { D 4  3  2  1   C } # D for Dihedral angle
| 15> { D 3  2  1  0   C } # D for Dihedral angle
| 16> { D 2  1  0  4   C } # D for Dihedral angle
| 17> { D 1  0  4  3   C } # D for Dihedral angle
| 18> { D 16  20  19  18   C } # D for Dihedral angle
| 19> { D 20  19  18  17   C } # D for Dihedral angle
| 20> { D 19  18  17  16   C } # D for Dihedral angle
| 21> { D 18  17  16  20   C } # D for Dihedral angle
| 22> { D 17  16  20  19   C } # D for Dihedral angle
| 23> { D 15  12  16  20   C } # D for Dihedral angle
| 24> end
| 25> end
| 26>
| 27>
| 28> #%pal
| 29> #nprocs 8
| 30> #end
| 31>
| 32> * xyz 0 1
| 33> C  -21.048   26.222   46.251
| 34> C  -20.361   27.558   45.944
| 35> C  -20.329   28.222   47.341
| 36> C  -20.110   27.022   48.296
| 37> O  -20.473   25.807   47.535
| 38> H  -20.833   25.428   45.533
| 39> H  -19.344   27.382   45.576
| 40> H  -20.898   28.157   45.201
| 41> H  -19.543   28.978   47.434
| 42> H  -21.289   28.710   47.548
| 43> H  -20.733   27.082   49.195
| 44> H  -19.064   26.913   48.597
| 45> C  -23.389   26.110   45.076
| 46> H  -23.711   27.062   44.634
| 47> H  -22.762   25.587   44.343
| 48> O  -22.586   26.394   46.375
| 49> C  -24.650   25.238   45.328
| 50> C  -25.666   25.970   46.212
| 51> C  -26.338   26.922   45.195
| 52> C  -26.358   26.086   43.890
| 53> O  -25.369   25.002   44.072
| 54> H  -24.340   24.263   45.707
| 55> H  -26.395   25.258   46.616
| 56> O  -25.009   26.724   47.401
| 57> H  -27.340   27.235   45.505
| 58> H  -25.730   27.825   45.066
| 59> H  -26.085   26.676   43.010
| 60> H  -27.327   25.612   43.713
| 61> H  -24.275   27.443   47.019
| 62> *
| 63>
| 64>                          ****END OF INPUT****
 Total Charge           Charge          ....    0
 Multiplicity           Mult            ....    1
 Number of Electrons    NEL             ....  102
FINAL SINGLE POINT ENERGY      -652.829979332676
FINAL SINGLE POINT ENERGY      -652.854021202938
FINAL SINGLE POINT ENERGY      -652.860148339960
FINAL SINGLE POINT ENERGY      -652.862546346911
FINAL SINGLE POINT ENERGY      -652.864039260733
FINAL SINGLE POINT ENERGY      -652.864964501048
FINAL SINGLE POINT ENERGY      -652.865466118276
FINAL SINGLE POINT ENERGY      -652.865575545919
FINAL SINGLE POINT ENERGY      -652.865591721725
FINAL SINGLE POINT ENERGY      -652.865594963130
                    ***********************HURRAY********************

CARTESIAN COORDINATES (ANGSTROEM)
---------------------------------
  C    -21.100595   26.208688   46.184027
  C    -20.363820   27.517648   45.913033
  C    -20.451322   28.224972   47.286212
  C    -20.350171   27.054665   48.285595
  O    -20.671193   25.831080   47.495591
  H    -20.869954   25.383532   45.503224
  H    -19.322348   27.297237   45.650823
  H    -20.811538   28.097793   45.101512
  H    -19.657587   28.964174   47.428290
  H    -21.415337   28.733921   47.380653
  H    -21.057842   27.126122   49.114796
  H    -19.339965   26.912197   48.678890
  C    -23.294141   26.142086   44.971605
  H    -23.551556   27.092738   44.490281
  H    -22.684095   25.555027   44.273694
  O    -22.547748   26.410796   46.203469
  C    -24.544679   25.337920   45.341912
  C    -25.537611   26.071545   46.259119
  C    -26.285994   26.985194   45.246428
  C    -26.348522   26.119011   43.972047
  O    -25.314828   25.052525   44.133654
  H    -24.234847   24.375087   45.757477
  H    -26.236948   25.334663   46.672491
  O    -24.964668   26.802799   47.360569
  H    -27.273730   27.275490   45.612390
  H    -25.700055   27.898761   45.099442
  H    -26.135094   26.677606   43.055368
  H    -27.307426   25.605921   43.856174
  H    -23.981388   26.798803   47.284238

 Multiplicity           Mult            ....    1
 Number of Electrons    NEL             ....  102
 Basis Dimension        Dim             ....  149

ORBITAL ENERGIES
----------------

  NO   OCC          E(Eh)            E(eV)
   0   2.0000     -19.162177      -521.4294
   1   2.0000     -19.151809      -521.1472
   2   2.0000     -19.139937      -520.8242
   3   2.0000     -19.110421      -520.0210
   4   2.0000     -10.294051      -280.1154
   5   2.0000     -10.241228      -278.6780
   6   2.0000     -10.233453      -278.4664
   7   2.0000     -10.232920      -278.4519
   8   2.0000     -10.228745      -278.3383
   9   2.0000     -10.225943      -278.2621
  10   2.0000     -10.195813      -277.4422
  11   2.0000     -10.194406      -277.4039
  12   2.0000     -10.177735      -276.9502
  13   2.0000      -1.066495       -29.0208
  14   2.0000      -1.025401       -27.9026
  15   2.0000      -1.008442       -27.4411
  16   2.0000      -0.990061       -26.9409
  17   2.0000      -0.796277       -21.6678
  18   2.0000      -0.773611       -21.0510
  19   2.0000      -0.767243       -20.8777
  20   2.0000      -0.737362       -20.0647
  21   2.0000      -0.680248       -18.5105
  22   2.0000      -0.609262       -16.5789
  23   2.0000      -0.602033       -16.3822
  24   2.0000      -0.594659       -16.1815
  25   2.0000      -0.580112       -15.7857
  26   2.0000      -0.529035       -14.3958
  27   2.0000      -0.523139       -14.2353
  28   2.0000      -0.499969       -13.6048
  29   2.0000      -0.488901       -13.3037
  30   2.0000      -0.474496       -12.9117
  31   2.0000      -0.458601       -12.4792
  32   2.0000      -0.450083       -12.2474
  33   2.0000      -0.436042       -11.8653
  34   2.0000      -0.426777       -11.6132
  35   2.0000      -0.415201       -11.2982
  36   2.0000      -0.408944       -11.1279
  37   2.0000      -0.386454       -10.5159
  38   2.0000      -0.382359       -10.4045
  39   2.0000      -0.368623       -10.0307
  40   2.0000      -0.365068        -9.9340
  41   2.0000      -0.364251        -9.9118
  42   2.0000      -0.348500        -9.4832
  43   2.0000      -0.341947        -9.3048
  44   2.0000      -0.323415        -8.8006
  45   2.0000      -0.320346        -8.7170
  46   2.0000      -0.282870        -7.6973
  47   2.0000      -0.280092        -7.6217
  48   2.0000      -0.265741        -7.2312
  49   2.0000      -0.247010        -6.7215
  50   2.0000      -0.240644        -6.5483
  51   0.0000       0.055708         1.5159
  52   0.0000       0.079024         2.1504
  53   0.0000       0.087648         2.3850
  54   0.0000       0.097742         2.6597
  55   0.0000       0.105058         2.8588

MULLIKEN ATOMIC CHARGES
-----------------------
   0 C :    0.306313
   1 C :   -0.262941
   2 C :   -0.303660
   3 C :   -0.009743
   4 O :   -0.499926
   5 H :    0.148274
   6 H :    0.149773
   7 H :    0.147620
   8 H :    0.147854
   9 H :    0.164123
  10 H :    0.161544
  11 H :    0.148249
  12 C :   -0.024739
  13 H :    0.146250
  14 H :    0.152904
  15 O :   -0.557506
  16 C :    0.061237
  17 C :    0.124148
  18 C :   -0.303526
  19 C :   -0.013903
  20 O :   -0.524919
  21 H :    0.159284
  22 H :    0.146377
  23 O :   -0.644320
  24 H :    0.150421
  25 H :    0.146904
  26 H :    0.138226
  27 H :    0.148044
  28 H :    0.397638
Sum of atomic charges:   -0.0000000

LOEWDIN ATOMIC CHARGES
----------------------
   0 C :    0.183444
   1 C :   -0.226344
   2 C :   -0.217216
   3 C :   -0.026208
   4 O :   -0.303009
   5 H :    0.102268
   6 H :    0.116666
   7 H :    0.117484
   8 H :    0.117580
   9 H :    0.119552
  10 H :    0.112614
  11 H :    0.106107
  12 C :   -0.043744
  13 H :    0.101601
  14 H :    0.109550
  15 O :   -0.346807
  16 C :    0.016383
  17 C :    0.042648
  18 C :   -0.235756
  19 C :   -0.030945
  20 O :   -0.326077
  21 H :    0.116025
  22 H :    0.103854
  23 O :   -0.436733
  24 H :    0.121276
  25 H :    0.111454
  26 H :    0.100270
  27 H :    0.105536
  28 H :    0.288526

  Mayer bond orders larger than 0.100000
B(  0-C ,  1-C ) :   0.9353 B(  0-C ,  4-O ) :   0.9523 B(  0-C ,  5-H ) :   0.9191
B(  0-C , 15-O ) :   0.7908 B(  1-C ,  2-C ) :   0.9525 B(  1-C ,  6-H ) :   0.9334
B(  1-C ,  7-H ) :   0.9375 B(  2-C ,  3-C ) :   0.9539 B(  2-C ,  8-H ) :   0.9445
B(  2-C ,  9-H ) :   0.9435 B(  3-C ,  4-O ) :   0.8281 B(  3-C , 10-H ) :   0.9336
B(  3-C , 11-H ) :   0.9394 B( 12-C , 13-H ) :   0.9260 B( 12-C , 14-H ) :   0.9222
B( 12-C , 15-O ) :   0.7891 B( 12-C , 16-C ) :   0.8969 B( 16-C , 17-C ) :   0.9172
B( 16-C , 20-O ) :   0.8533 B( 16-C , 21-H ) :   0.9295 B( 17-C , 18-C ) :   0.9031
B( 17-C , 22-H ) :   0.9287 B( 17-C , 23-O ) :   0.9329 B( 18-C , 19-C ) :   0.9379
B( 18-C , 24-H ) :   0.9450 B( 18-C , 25-H ) :   0.9430 B( 19-C , 20-O ) :   0.8315
B( 19-C , 26-H ) :   0.9355 B( 19-C , 27-H ) :   0.9390 B( 23-O , 28-H ) :   0.7229

FINAL SINGLE POINT ENERGY      -652.865595723332

DIPOLE MOMENT
-------------
                                X             Y             Z
Electronic contribution:     -0.87294      -4.72452       1.14414
Nuclear contribution   :      1.77060       5.69011      -1.88357
                        -----------------------------------------
Total Dipole Moment    :      0.89766       0.96559      -0.73943
                        -----------------------------------------
Magnitude (a.u.)       :      1.51159
Magnitude (Debye)      :      3.84216

Rotational constants in cm-1:     0.059712     0.012986     0.012216
Rotational constants in MHz :  1790.130581   389.307462   366.237606

                             ****ORCA TERMINATED NORMALLY****
TOTAL RUN TIME: 0 days 1 hours 2 minutes 52 seconds 885 msec
