                         Program Version 4.2.0 -  RELEASE  -
|  1> # Test redundant internal optimization
|  2> #
|  3> ! RKS B3LYP  Opt TightSCF SmallPrint
|  4>
|  5> %basis
|  6>         Basis "6-31G"
|  7> end
|  8>
|  9> %geom
| 10> Constraints
| 11> { D 4  0  15  12  105.0   C } # D for Dihedral angle
| 12> { D 0  15  12  16  255.0   C } # D for Dihedral angle
| 13> { D 0  4  3  2   C } # D for Dihedral angle
| 14> { D 4  3  2  1   C } # D for Dihedral angle
| 15> { D 3  2  1  0   C } # D for Dihedral angle
| 16> { D 2  1  0  4   C } # D for Dihedral angle
| 17> { D 1  0  4  3   C } # D for Dihedral angle
| 18> { D 16  20  19  18   C } # D for Dihedral angle
| 19> { D 20  19  18  17   C } # D for Dihedral angle
| 20> { D 19  18  17  16   C } # D for Dihedral angle
| 21> { D 18  17  16  20   C } # D for Dihedral angle
| 22> { D 17  16  20  19   C } # D for Dihedral angle
| 23> { D 15  12  16  20   C } # D for Dihedral angle
| 24> end
| 25> end
| 26>
| 27>
| 28> #%pal
| 29> #nprocs 8
| 30> #end
| 31>
| 32> * xyz 0 1
| 33> C  -21.048   26.222   46.251
| 34> C  -20.361   27.558   45.944
| 35> C  -20.329   28.222   47.341
| 36> C  -20.110   27.022   48.296
| 37> O  -20.473   25.807   47.535
| 38> H  -20.833   25.428   45.533
| 39> H  -19.344   27.382   45.576
| 40> H  -20.898   28.157   45.201
| 41> H  -19.543   28.978   47.434
| 42> H  -21.289   28.710   47.548
| 43> H  -20.733   27.082   49.195
| 44> H  -19.064   26.913   48.597
| 45> C  -23.085   27.864   46.420
| 46> H  -22.281   28.530   46.080
| 47> H  -23.946   27.999   45.753
| 48> O  -22.586   26.394   46.375
| 49> C  -23.517   28.309   47.845
| 50> C  -24.579   27.366   48.424
| 51> C  -23.715   26.170   48.892
| 52> C  -22.408   26.848   49.374
| 53> O  -22.391   28.202   48.779
| 54> H  -23.811   29.359   47.818
| 55> O  -25.284   28.038   49.633
| 56> H  -25.343   27.078   47.694
| 57> H  -24.196   25.581   49.679
| 58> H  -23.513   25.499   48.048
| 59> H  -21.512   26.304   49.058
| 60> H  -22.380   26.974   50.461
| 61> H  -24.537   28.334   50.378
| 62> *
| 63>
| 64>                          ****END OF INPUT****
 Total Charge           Charge          ....    0
 Multiplicity           Mult            ....    1
 Number of Electrons    NEL             ....  102
FINAL SINGLE POINT ENERGY      -652.724778134036
FINAL SINGLE POINT ENERGY      -652.819793441554
FINAL SINGLE POINT ENERGY      -652.844004004531
FINAL SINGLE POINT ENERGY      -652.851155827778
FINAL SINGLE POINT ENERGY      -652.854574136036
FINAL SINGLE POINT ENERGY      -652.855676162773
FINAL SINGLE POINT ENERGY      -652.856273212818
FINAL SINGLE POINT ENERGY      -652.856479744230
FINAL SINGLE POINT ENERGY      -652.856554275580
FINAL SINGLE POINT ENERGY      -652.856566718547
                    ***********************HURRAY********************

CARTESIAN COORDINATES (ANGSTROEM)
---------------------------------
  C    -21.058717   26.429741   46.248689
  C    -20.192440   27.619476   45.811594
  C    -19.812095   28.259724   47.177400
  C    -19.670858   27.032294   48.104269
  O    -20.381435   25.914145   47.415250
  H    -21.000145   25.602380   45.536235
  H    -19.304986   27.218566   45.311719
  H    -20.690024   28.307572   45.123389
  H    -18.886550   28.841058   47.121149
  H    -20.610201   28.910812   47.543370
  H    -20.106039   27.199509   49.088301
  H    -18.632858   26.704362   48.214869
  C    -23.148110   27.885404   46.512661
  H    -22.471770   28.693281   46.216318
  H    -23.997517   27.885000   45.819551
  O    -22.502346   26.587967   46.352898
  C    -23.671004   28.171895   47.922643
  C    -24.775883   27.249450   48.456682
  C    -23.944206   26.109047   49.093821
  C    -22.704091   26.832757   49.657435
  O    -22.642633   28.159847   48.964564
  H    -24.060045   29.199406   47.895397
  O    -25.609123   27.946152   49.425143
  H    -25.464935   26.903454   47.685821
  H    -24.519940   25.583266   49.860582
  H    -23.644620   25.405054   48.313417
  H    -21.792644   26.274766   49.452547
  H    -22.777225   27.048406   50.728425
  H    -25.036559   28.355206   50.107860

 Multiplicity           Mult            ....    1
 Number of Electrons    NEL             ....  102
 Basis Dimension        Dim             ....  149

ORBITAL ENERGIES
----------------

  NO   OCC          E(Eh)            E(eV)
   0   2.0000     -19.149207      -521.0764
   1   2.0000     -19.146206      -520.9948
   2   2.0000     -19.145038      -520.9630
   3   2.0000     -19.135091      -520.6923
   4   2.0000     -10.280587      -279.7490
   5   2.0000     -10.236997      -278.5629
   6   2.0000     -10.236131      -278.5393
   7   2.0000     -10.234019      -278.4818
   8   2.0000     -10.223703      -278.2011
   9   2.0000     -10.222400      -278.1657
  10   2.0000     -10.194060      -277.3945
  11   2.0000     -10.186354      -277.1848
  12   2.0000     -10.175777      -276.8970
  13   2.0000      -1.049645       -28.5623
  14   2.0000      -1.032308       -28.0905
  15   2.0000      -1.004230       -27.3265
  16   2.0000      -0.997185       -27.1348
  17   2.0000      -0.788123       -21.4459
  18   2.0000      -0.779743       -21.2179
  19   2.0000      -0.766561       -20.8592
  20   2.0000      -0.734960       -19.9993
  21   2.0000      -0.680059       -18.5054
  22   2.0000      -0.606177       -16.4949
  23   2.0000      -0.601571       -16.3696
  24   2.0000      -0.595831       -16.2134
  25   2.0000      -0.566858       -15.4250
  26   2.0000      -0.525131       -14.2895
  27   2.0000      -0.506834       -13.7917
  28   2.0000      -0.497071       -13.5260
  29   2.0000      -0.495031       -13.4705
  30   2.0000      -0.468494       -12.7484
  31   2.0000      -0.460214       -12.5231
  32   2.0000      -0.447295       -12.1715
  33   2.0000      -0.435630       -11.8541
  34   2.0000      -0.426743       -11.6123
  35   2.0000      -0.412411       -11.2223
  36   2.0000      -0.402839       -10.9618
  37   2.0000      -0.386496       -10.5171
  38   2.0000      -0.382511       -10.4087
  39   2.0000      -0.363161        -9.8821
  40   2.0000      -0.359594        -9.7851
  41   2.0000      -0.357742        -9.7346
  42   2.0000      -0.347940        -9.4679
  43   2.0000      -0.327417        -8.9095
  44   2.0000      -0.319646        -8.6980
  45   2.0000      -0.307788        -8.3753
  46   2.0000      -0.295102        -8.0301
  47   2.0000      -0.280659        -7.6371
  48   2.0000      -0.266484        -7.2514
  49   2.0000      -0.259500        -7.0614
  50   2.0000      -0.241834        -6.5806
  51   0.0000       0.064751         1.7620
  52   0.0000       0.079490         2.1630
  53   0.0000       0.093670         2.5489
  54   0.0000       0.098414         2.6780
  55   0.0000       0.106712         2.9038

MULLIKEN ATOMIC CHARGES
-----------------------
   0 C :    0.318230
   1 C :   -0.303884
   2 C :   -0.314248
   3 C :   -0.011439
   4 O :   -0.506553
   5 H :    0.162935
   6 H :    0.159180
   7 H :    0.148332
   8 H :    0.141174
   9 H :    0.177409
  10 H :    0.152429
  11 H :    0.143446
  12 C :   -0.023602
  13 H :    0.138472
  14 H :    0.150044
  15 O :   -0.526705
  16 C :    0.083998
  17 C :    0.080070
  18 C :   -0.298665
  19 C :   -0.044193
  20 O :   -0.537026
  21 H :    0.150512
  22 O :   -0.604019
  23 H :    0.154870
  24 H :    0.149888
  25 H :    0.185767
  26 H :    0.175726
  27 H :    0.136621
  28 H :    0.361230
Sum of atomic charges:   -0.0000000

LOEWDIN ATOMIC CHARGES
----------------------
   0 C :    0.176497
   1 C :   -0.230807
   2 C :   -0.224297
   3 C :   -0.032046
   4 O :   -0.320626
   5 H :    0.107156
   6 H :    0.123889
   7 H :    0.115844
   8 H :    0.114028
   9 H :    0.122063
  10 H :    0.107635
  11 H :    0.101719
  12 C :   -0.040533
  13 H :    0.102353
  14 H :    0.112195
  15 O :   -0.325030
  16 C :    0.005089
  17 C :    0.038665
  18 C :   -0.240500
  19 C :   -0.041969
  20 O :   -0.337434
  21 H :    0.113156
  22 O :   -0.416838
  23 H :    0.117545
  24 H :    0.120132
  25 H :    0.135439
  26 H :    0.118668
  27 H :    0.096800
  28 H :    0.281208

  Mayer bond orders larger than 0.100000
B(  0-C ,  1-C ) :   0.9258 B(  0-C ,  4-O ) :   0.9043 B(  0-C ,  5-H ) :   0.9379
B(  0-C , 15-O ) :   0.8789 B(  1-C ,  2-C ) :   0.9540 B(  1-C ,  6-H ) :   0.9342
B(  1-C ,  7-H ) :   0.9310 B(  2-C ,  3-C ) :   0.9554 B(  2-C ,  8-H ) :   0.9445
B(  2-C ,  9-H ) :   0.9277 B(  3-C ,  4-O ) :   0.8314 B(  3-C , 10-H ) :   0.9206
B(  3-C , 11-H ) :   0.9409 B( 12-C , 13-H ) :   0.9131 B( 12-C , 14-H ) :   0.9251
B( 12-C , 15-O ) :   0.8690 B( 12-C , 16-C ) :   0.8852 B( 16-C , 17-C ) :   0.9081
B( 16-C , 20-O ) :   0.8674 B( 16-C , 21-H ) :   0.9165 B( 17-C , 18-C ) :   0.9251
B( 17-C , 22-O ) :   0.8907 B( 17-C , 23-H ) :   0.9355 B( 18-C , 19-C ) :   0.9482
B( 18-C , 24-H ) :   0.9368 B( 18-C , 25-H ) :   0.9174 B( 19-C , 20-O ) :   0.8270
B( 19-C , 26-H ) :   0.9097 B( 19-C , 27-H ) :   0.9376 B( 22-O , 28-H ) :   0.7980

FINAL SINGLE POINT ENERGY      -652.856568210384

DIPOLE MOMENT
-------------
                                X             Y             Z
Electronic contribution:     -3.26352      -1.38242       0.36532
Nuclear contribution   :      4.05594       1.99765      -0.71430
                        -----------------------------------------
Total Dipole Moment    :      0.79241       0.61523      -0.34898
                        -----------------------------------------
Magnitude (a.u.)       :      1.06217
Magnitude (Debye)      :      2.69983

Rotational constants in cm-1:     0.051803     0.017922     0.016752
Rotational constants in MHz :  1553.011833   537.281044   502.201467

                             ****ORCA TERMINATED NORMALLY****
TOTAL RUN TIME: 0 days 0 hours 28 minutes 25 seconds 978 msec
