                         Program Version 4.2.0 -  RELEASE  -
|  1> # Test redundant internal optimization
|  2> #
|  3> ! RKS B3LYP  Opt TightSCF SmallPrint
|  4>
|  5> %basis
|  6>         Basis "6-31G"
|  7> end
|  8>
|  9> %geom
| 10> Constraints
| 11> { D 4  0  15  12  30.0   C } # D for Dihedral angle
| 12> { D 0  15  12  16  240.0   C } # D for Dihedral angle
| 13> { D 0  4  3  2   C } # D for Dihedral angle
| 14> { D 4  3  2  1   C } # D for Dihedral angle
| 15> { D 3  2  1  0   C } # D for Dihedral angle
| 16> { D 2  1  0  4   C } # D for Dihedral angle
| 17> { D 1  0  4  3   C } # D for Dihedral angle
| 18> { D 16  20  19  18   C } # D for Dihedral angle
| 19> { D 20  19  18  17   C } # D for Dihedral angle
| 20> { D 19  18  17  16   C } # D for Dihedral angle
| 21> { D 18  17  16  20   C } # D for Dihedral angle
| 22> { D 17  16  20  19   C } # D for Dihedral angle
| 23> { D 15  12  16  20   C } # D for Dihedral angle
| 24> end
| 25> end
| 26>
| 27>
| 28> #%pal
| 29> #nprocs 8
| 30> #end
| 31>
| 32> * xyz 0 1
| 33> C  -21.048   26.222   46.251
| 34> C  -20.361   27.558   45.944
| 35> C  -20.329   28.222   47.341
| 36> C  -20.110   27.022   48.296
| 37> O  -20.473   25.807   47.535
| 38> H  -20.833   25.428   45.533
| 39> H  -19.344   27.382   45.576
| 40> H  -20.898   28.157   45.201
| 41> H  -19.543   28.978   47.434
| 42> H  -21.289   28.710   47.548
| 43> H  -20.733   27.082   49.195
| 44> H  -19.064   26.913   48.597
| 45> C  -23.091   26.824   47.779
| 46> H  -22.233   26.941   48.453
| 47> H  -23.615   27.787   47.721
| 48> O  -22.586   26.394   46.375
| 49> C  -24.069   25.792   48.408
| 50> C  -23.367   24.458   48.684
| 51> C  -22.607   24.769   49.996
| 52> C  -23.571   25.724   50.742
| 53> O  -24.513   26.247   49.730
| 54> H  -24.958   25.714   47.781
| 55> H  -24.110   23.669   48.846
| 56> O  -22.424   24.014   47.532
| 57> H  -22.378   23.870   50.577
| 58> H  -21.660   25.273   49.771
| 59> H  -23.049   26.564   51.213
| 60> H  -24.166   25.208   51.501
| 61> H  -21.671   24.790   47.353
| 62> *
| 63>
| 64>                          ****END OF INPUT****
 Total Charge           Charge          ....    0
 Multiplicity           Mult            ....    1
 Number of Electrons    NEL             ....  102
FINAL SINGLE POINT ENERGY      -652.807069034276
FINAL SINGLE POINT ENERGY      -652.840920192453
FINAL SINGLE POINT ENERGY      -652.856371779698
FINAL SINGLE POINT ENERGY      -652.859497472359
FINAL SINGLE POINT ENERGY      -652.859911560432
FINAL SINGLE POINT ENERGY      -652.860003042488
FINAL SINGLE POINT ENERGY      -652.860021767483
FINAL SINGLE POINT ENERGY      -652.860027772397
                    ***********************HURRAY********************

CARTESIAN COORDINATES (ANGSTROEM)
---------------------------------
  C    -21.118039   26.356252   46.342673
  C    -20.420608   27.643485   45.882069
  C    -20.118887   28.344929   47.234511
  C    -19.808166   27.155978   48.179933
  O    -20.366728   25.947084   47.515532
  H    -21.039240   25.538577   45.623958
  H    -19.493407   27.382871   45.359674
  H    -21.054854   28.232826   45.217093
  H    -19.278429   29.042185   47.171000
  H    -20.994998   28.904541   47.578636
  H    -20.257967   27.257139   49.171796
  H    -18.734740   26.978763   48.291914
  C    -23.116470   26.858503   47.849160
  H    -22.347897   27.054492   48.601744
  H    -23.698737   27.774097   47.704372
  O    -22.529251   26.485769   46.567103
  C    -24.048469   25.746491   48.352162
  C    -23.378190   24.393546   48.674955
  C    -22.731819   24.677502   50.075466
  C    -23.761911   25.624087   50.727830
  O    -24.605625   26.173425   49.635694
  H    -24.884873   25.626999   47.659753
  H    -24.166654   23.642202   48.774843
  O    -22.447443   23.839258   47.730607
  H    -22.575267   23.757848   50.644122
  H    -21.759406   25.161785   49.929424
  H    -23.302503   26.457330   51.270547
  H    -24.435100   25.094952   51.409415
  H    -21.617321   24.366082   47.737013

 Multiplicity           Mult            ....    1
 Number of Electrons    NEL             ....  102
 Basis Dimension        Dim             ....  149

ORBITAL ENERGIES
----------------

  NO   OCC          E(Eh)            E(eV)
   0   2.0000     -19.169859      -521.6384
   1   2.0000     -19.142632      -520.8975
   2   2.0000     -19.136349      -520.7265
   3   2.0000     -19.116908      -520.1975
   4   2.0000     -10.290201      -280.0106
   5   2.0000     -10.248281      -278.8699
   6   2.0000     -10.231088      -278.4021
   7   2.0000     -10.228887      -278.3422
   8   2.0000     -10.225589      -278.2524
   9   2.0000     -10.223484      -278.1952
  10   2.0000     -10.203851      -277.6609
  11   2.0000     -10.195951      -277.4459
  12   2.0000     -10.182052      -277.0677
  13   2.0000      -1.069159       -29.0933
  14   2.0000      -1.022333       -27.8191
  15   2.0000      -1.003200       -27.2984
  16   2.0000      -0.996061       -27.1042
  17   2.0000      -0.800556       -21.7842
  18   2.0000      -0.775241       -21.0954
  19   2.0000      -0.765940       -20.8423
  20   2.0000      -0.736114       -20.0307
  21   2.0000      -0.679215       -18.4824
  22   2.0000      -0.616571       -16.7777
  23   2.0000      -0.605187       -16.4680
  24   2.0000      -0.596383       -16.2284
  25   2.0000      -0.568861       -15.4795
  26   2.0000      -0.527531       -14.3548
  27   2.0000      -0.518486       -14.1087
  28   2.0000      -0.506472       -13.7818
  29   2.0000      -0.488284       -13.2869
  30   2.0000      -0.477581       -12.9956
  31   2.0000      -0.460830       -12.5398
  32   2.0000      -0.442750       -12.0479
  33   2.0000      -0.431859       -11.7515
  34   2.0000      -0.423217       -11.5163
  35   2.0000      -0.416867       -11.3435
  36   2.0000      -0.407055       -11.0765
  37   2.0000      -0.399960       -10.8835
  38   2.0000      -0.385659       -10.4943
  39   2.0000      -0.372540       -10.1373
  40   2.0000      -0.362424        -9.8621
  41   2.0000      -0.361565        -9.8387
  42   2.0000      -0.347953        -9.4683
  43   2.0000      -0.342609        -9.3229
  44   2.0000      -0.324866        -8.8400
  45   2.0000      -0.315541        -8.5863
  46   2.0000      -0.295492        -8.0407
  47   2.0000      -0.278896        -7.5891
  48   2.0000      -0.263083        -7.1588
  49   2.0000      -0.251153        -6.8342
  50   2.0000      -0.227546        -6.1918
  51   0.0000       0.054483         1.4826
  52   0.0000       0.074069         2.0155
  53   0.0000       0.086014         2.3406
  54   0.0000       0.095157         2.5894
  55   0.0000       0.100442         2.7332

MULLIKEN ATOMIC CHARGES
-----------------------
   0 C :    0.289562
   1 C :   -0.257673
   2 C :   -0.315118
   3 C :   -0.019530
   4 O :   -0.541816
   5 H :    0.178916
   6 H :    0.150874
   7 H :    0.164841
   8 H :    0.154177
   9 H :    0.158320
  10 H :    0.148516
  11 H :    0.159481
  12 C :   -0.023462
  13 H :    0.129093
  14 H :    0.157660
  15 O :   -0.526633
  16 C :    0.086636
  17 C :    0.106766
  18 C :   -0.337830
  19 C :   -0.009274
  20 O :   -0.525531
  21 H :    0.161097
  22 H :    0.156929
  23 O :   -0.621479
  24 H :    0.154564
  25 H :    0.146549
  26 H :    0.133514
  27 H :    0.148202
  28 H :    0.392647
Sum of atomic charges:    0.0000000

LOEWDIN ATOMIC CHARGES
----------------------
   0 C :    0.176419
   1 C :   -0.222098
   2 C :   -0.220889
   3 C :   -0.033797
   4 O :   -0.333170
   5 H :    0.116920
   6 H :    0.117892
   7 H :    0.127855
   8 H :    0.120971
   9 H :    0.115437
  10 H :    0.101463
  11 H :    0.110753
  12 C :   -0.042753
  13 H :    0.096184
  14 H :    0.112017
  15 O :   -0.327310
  16 C :    0.018748
  17 C :    0.041502
  18 C :   -0.246724
  19 C :   -0.032541
  20 O :   -0.325963
  21 H :    0.116828
  22 H :    0.112833
  23 O :   -0.415263
  24 H :    0.122053
  25 H :    0.108980
  26 H :    0.096854
  27 H :    0.105144
  28 H :    0.281654

  Mayer bond orders larger than 0.100000
B(  0-C ,  1-C ) :   0.9227 B(  0-C ,  4-O ) :   0.8528 B(  0-C ,  5-H ) :   0.9275
B(  0-C , 15-O ) :   0.8872 B(  1-C ,  2-C ) :   0.9506 B(  1-C ,  6-H ) :   0.9338
B(  1-C ,  7-H ) :   0.9371 B(  2-C ,  3-C ) :   0.9517 B(  2-C ,  8-H ) :   0.9439
B(  2-C ,  9-H ) :   0.9429 B(  3-C ,  4-O ) :   0.8144 B(  3-C , 10-H ) :   0.9271
B(  3-C , 11-H ) :   0.9389 B( 12-C , 13-H ) :   0.9162 B( 12-C , 14-H ) :   0.9322
B( 12-C , 15-O ) :   0.8159 B( 12-C , 16-C ) :   0.8990 B( 16-C , 17-C ) :   0.8807
B( 16-C , 20-O ) :   0.8375 B( 16-C , 21-H ) :   0.9322 B( 17-C , 18-C ) :   0.9173
B( 17-C , 22-H ) :   0.9348 B( 17-C , 23-O ) :   0.9447 B( 18-C , 19-C ) :   0.9383
B( 18-C , 24-H ) :   0.9428 B( 18-C , 25-H ) :   0.9368 B( 19-C , 20-O ) :   0.8381
B( 19-C , 26-H ) :   0.9346 B( 19-C , 27-H ) :   0.9390 B( 23-O , 28-H ) :   0.7347

FINAL SINGLE POINT ENERGY      -652.860028269369

DIPOLE MOMENT
-------------
                                X             Y             Z
Electronic contribution:     -3.65092      -3.45209      -2.51514
Nuclear contribution   :      4.97354       4.65348       2.98402
                        -----------------------------------------
Total Dipole Moment    :      1.32262       1.20139       0.46889
                        -----------------------------------------
Magnitude (a.u.)       :      1.84730
Magnitude (Debye)      :      4.69546

Rotational constants in cm-1:     0.047125     0.017324     0.016938
Rotational constants in MHz :  1412.765582   519.369620   507.798205

                             ****ORCA TERMINATED NORMALLY****
TOTAL RUN TIME: 0 days 0 hours 38 minutes 28 seconds 15 msec
