                         Program Version 4.2.0 -  RELEASE  -
|  1> # Test redundant internal optimization
|  2> #
|  3> ! RKS B3LYP  Opt TightSCF SmallPrint
|  4>
|  5> %basis
|  6>         Basis "6-31G"
|  7> end
|  8>
|  9> %geom
| 10> Constraints
| 11> { D 4  0  15  12  135.0   C } # D for Dihedral angle
| 12> { D 0  15  12  16  210.0   C } # D for Dihedral angle
| 13> { D 0  4  3  2   C } # D for Dihedral angle
| 14> { D 4  3  2  1   C } # D for Dihedral angle
| 15> { D 3  2  1  0   C } # D for Dihedral angle
| 16> { D 2  1  0  4   C } # D for Dihedral angle
| 17> { D 1  0  4  3   C } # D for Dihedral angle
| 18> { D 16  20  19  18   C } # D for Dihedral angle
| 19> { D 20  19  18  17   C } # D for Dihedral angle
| 20> { D 19  18  17  16   C } # D for Dihedral angle
| 21> { D 18  17  16  20   C } # D for Dihedral angle
| 22> { D 17  16  20  19   C } # D for Dihedral angle
| 23> { D 15  12  16  20   C } # D for Dihedral angle
| 24> end
| 25> end
| 26>
| 27>
| 28> #%pal
| 29> #nprocs 8
| 30> #end
| 31>
| 32> * xyz 0 1
| 33> C  -21.048   26.222   46.251
| 34> C  -20.361   27.558   45.944
| 35> C  -20.329   28.222   47.341
| 36> C  -20.110   27.022   48.296
| 37> O  -20.473   25.807   47.535
| 38> H  -20.833   25.428   45.533
| 39> H  -19.344   27.382   45.576
| 40> H  -20.898   28.157   45.201
| 41> H  -19.543   28.978   47.434
| 42> H  -21.289   28.710   47.548
| 43> H  -20.733   27.082   49.195
| 44> H  -19.064   26.913   48.597
| 45> C  -23.162   27.680   45.721
| 46> H  -22.403   28.471   45.749
| 47> H  -23.423   27.492   44.671
| 48> O  -22.586   26.394   46.375
| 49> C  -24.437   28.200   46.439
| 50> C  -25.515   27.112   46.518
| 51> C  -25.009   26.256   47.704
| 52> C  -24.379   27.306   48.653
| 53> O  -24.142   28.519   47.840
| 54> H  -24.764   29.126   45.962
| 55> H  -26.486   27.562   46.753
| 56> O  -25.657   26.297   45.204
| 57> H  -25.809   25.684   48.186
| 58> H  -24.250   25.544   47.358
| 59> H  -23.429   26.969   49.080
| 60> H  -25.052   27.590   49.467
| 61> H  -24.695   25.837   44.950
| 62> *
| 63>
| 64>                          ****END OF INPUT****
 Total Charge           Charge          ....    0
 Multiplicity           Mult            ....    1
 Number of Electrons    NEL             ....  102
FINAL SINGLE POINT ENERGY      -652.824138312232
FINAL SINGLE POINT ENERGY      -652.848345334131
FINAL SINGLE POINT ENERGY      -652.855630791709
FINAL SINGLE POINT ENERGY      -652.857788416665
FINAL SINGLE POINT ENERGY      -652.858122776847
FINAL SINGLE POINT ENERGY      -652.858186137284
FINAL SINGLE POINT ENERGY      -652.858187730497
                    ***********************HURRAY********************

CARTESIAN COORDINATES (ANGSTROEM)
---------------------------------
  C    -21.099385   26.336972   46.216266
  C    -20.215276   27.552406   45.929546
  C    -20.192436   28.267579   47.306651
  C    -20.212859   27.086759   48.301132
  O    -20.688689   25.912247   47.526977
  H    -20.942231   25.484721   45.551743
  H    -19.215226   27.186512   45.671866
  H    -20.556593   28.186138   45.107919
  H    -19.309982   28.902110   47.430481
  H    -21.085306   28.887604   47.436639
  H    -20.888531   27.251225   49.143792
  H    -19.218563   26.829402   48.677169
  C    -23.159875   27.767488   45.669907
  H    -22.490299   28.632181   45.694222
  H    -23.433439   27.571650   44.623366
  O    -22.536467   26.592919   46.259189
  C    -24.413381   28.132567   46.459342
  C    -25.505041   27.049049   46.523370
  C    -25.016712   26.173338   47.717870
  C    -24.391581   27.212947   48.669955
  O    -24.135130   28.434880   47.857022
  H    -24.806809   29.056101   46.016709
  H    -26.473223   27.508573   46.733026
  O    -25.690502   26.321667   45.284375
  H    -25.838610   25.619011   48.180650
  H    -24.256746   25.474497   47.362189
  H    -23.445120   26.869949   49.094436
  H    -25.069351   27.510774   49.475939
  H    -24.935637   25.708732   45.159251

 Multiplicity           Mult            ....    1
 Number of Electrons    NEL             ....  102
 Basis Dimension        Dim             ....  149

ORBITAL ENERGIES
----------------

  NO   OCC          E(Eh)            E(eV)
   0   2.0000     -19.145887      -520.9861
   1   2.0000     -19.143315      -520.9161
   2   2.0000     -19.136421      -520.7285
   3   2.0000     -19.133640      -520.6528
   4   2.0000     -10.286499      -279.9099
   5   2.0000     -10.233726      -278.4739
   6   2.0000     -10.233413      -278.4653
   7   2.0000     -10.229114      -278.3483
   8   2.0000     -10.228125      -278.3214
   9   2.0000     -10.218247      -278.0526
  10   2.0000     -10.196337      -277.4564
  11   2.0000     -10.191410      -277.3224
  12   2.0000     -10.173534      -276.8359
  13   2.0000      -1.055799       -28.7298
  14   2.0000      -1.024720       -27.8841
  15   2.0000      -1.007014       -27.4022
  16   2.0000      -0.994363       -27.0580
  17   2.0000      -0.791964       -21.5504
  18   2.0000      -0.773523       -21.0486
  19   2.0000      -0.763322       -20.7710
  20   2.0000      -0.734609       -19.9897
  21   2.0000      -0.680370       -18.5138
  22   2.0000      -0.606757       -16.5107
  23   2.0000      -0.599161       -16.3040
  24   2.0000      -0.596443       -16.2300
  25   2.0000      -0.562533       -15.3073
  26   2.0000      -0.531198       -14.4546
  27   2.0000      -0.508086       -13.8257
  28   2.0000      -0.499556       -13.5936
  29   2.0000      -0.490486       -13.3468
  30   2.0000      -0.469499       -12.7757
  31   2.0000      -0.457581       -12.4514
  32   2.0000      -0.447604       -12.1799
  33   2.0000      -0.429303       -11.6819
  34   2.0000      -0.419253       -11.4084
  35   2.0000      -0.416065       -11.3217
  36   2.0000      -0.400024       -10.8852
  37   2.0000      -0.395974       -10.7750
  38   2.0000      -0.386429       -10.5153
  39   2.0000      -0.366683        -9.9780
  40   2.0000      -0.363101        -9.8805
  41   2.0000      -0.355669        -9.6782
  42   2.0000      -0.349637        -9.5141
  43   2.0000      -0.323475        -8.8022
  44   2.0000      -0.315804        -8.5935
  45   2.0000      -0.306589        -8.3427
  46   2.0000      -0.295871        -8.0511
  47   2.0000      -0.274450        -7.4682
  48   2.0000      -0.258841        -7.0434
  49   2.0000      -0.254768        -6.9326
  50   2.0000      -0.238009        -6.4765
  51   0.0000       0.066720         1.8155
  52   0.0000       0.080227         2.1831
  53   0.0000       0.095428         2.5967
  54   0.0000       0.099088         2.6963
  55   0.0000       0.102190         2.7807

MULLIKEN ATOMIC CHARGES
-----------------------
   0 C :    0.326568
   1 C :   -0.306780
   2 C :   -0.310421
   3 C :   -0.004251
   4 O :   -0.500163
   5 H :    0.152094
   6 H :    0.155615
   7 H :    0.147834
   8 H :    0.145009
   9 H :    0.176043
  10 H :    0.154623
  11 H :    0.144100
  12 C :   -0.021244
  13 H :    0.143906
  14 H :    0.137808
  15 O :   -0.548597
  16 C :    0.098128
  17 C :    0.088137
  18 C :   -0.311024
  19 C :   -0.009461
  20 O :   -0.527792
  21 H :    0.144391
  22 H :    0.157659
  23 O :   -0.608752
  24 H :    0.139881
  25 H :    0.179571
  26 H :    0.153546
  27 H :    0.139082
  28 H :    0.364488
Sum of atomic charges:   -0.0000000

LOEWDIN ATOMIC CHARGES
----------------------
   0 C :    0.185639
   1 C :   -0.233076
   2 C :   -0.221079
   3 C :   -0.026842
   4 O :   -0.311579
   5 H :    0.103028
   6 H :    0.121924
   7 H :    0.115683
   8 H :    0.116241
   9 H :    0.122084
  10 H :    0.107719
  11 H :    0.103566
  12 C :   -0.047603
  13 H :    0.103672
  14 H :    0.098521
  15 O :   -0.344498
  16 C :    0.018711
  17 C :    0.038165
  18 C :   -0.242289
  19 C :   -0.024825
  20 O :   -0.328229
  21 H :    0.111658
  22 H :    0.114538
  23 O :   -0.412771
  24 H :    0.113336
  25 H :    0.128764
  26 H :    0.107254
  27 H :    0.099371
  28 H :    0.282914

  Mayer bond orders larger than 0.100000
B(  0-C ,  1-C ) :   0.9370 B(  0-C ,  4-O ) :   0.9309 B(  0-C ,  5-H ) :   0.9293
B(  0-C , 15-O ) :   0.8326 B(  1-C ,  2-C ) :   0.9483 B(  1-C ,  6-H ) :   0.9334
B(  1-C ,  7-H ) :   0.9279 B(  2-C ,  3-C ) :   0.9525 B(  2-C ,  8-H ) :   0.9450
B(  2-C ,  9-H ) :   0.9319 B(  3-C ,  4-O ) :   0.8360 B(  3-C , 10-H ) :   0.9306
B(  3-C , 11-H ) :   0.9400 B( 12-C , 13-H ) :   0.9094 B( 12-C , 14-H ) :   0.9083
B( 12-C , 15-O ) :   0.8346 B( 12-C , 16-C ) :   0.9017 B( 16-C , 17-C ) :   0.8876
B( 16-C , 20-O ) :   0.8802 B( 16-C , 21-H ) :   0.9288 B( 17-C , 18-C ) :   0.9349
B( 17-C , 22-H ) :   0.9369 B( 17-C , 23-O ) :   0.9009 B( 18-C , 19-C ) :   0.9462
B( 18-C , 24-H ) :   0.9416 B( 18-C , 25-H ) :   0.9222 B( 19-C , 20-O ) :   0.8323
B( 19-C , 26-H ) :   0.9279 B( 19-C , 27-H ) :   0.9378 B( 23-O , 28-H ) :   0.7924

FINAL SINGLE POINT ENERGY      -652.858187077542

DIPOLE MOMENT
-------------
                                X             Y             Z
Electronic contribution:     -2.84286      -2.06076      -1.20424
Nuclear contribution   :      3.81840       2.46685       1.00664
                        -----------------------------------------
Total Dipole Moment    :      0.97554       0.40608      -0.19760
                        -----------------------------------------
Magnitude (a.u.)       :      1.07500
Magnitude (Debye)      :      2.73243

Rotational constants in cm-1:     0.047183     0.017580     0.016270
Rotational constants in MHz :  1414.498122   527.034584   487.764331

                             ****ORCA TERMINATED NORMALLY****
TOTAL RUN TIME: 0 days 0 hours 20 minutes 58 seconds 665 msec
