                         Program Version 4.2.1 -  RELEASE  -
|  1> # Test redundant internal optimization
|  2> #
|  3> ! RKS B3LYP  Opt TightSCF SmallPrint
|  4>
|  5> %basis
|  6>         Basis "6-31G"
|  7> end
|  8>
|  9> %geom
| 10> Constraints
| 11> { D 4  0  19  14  120.0   C } # D for Dihedral angle
| 12> { D 0  19  14  12  90.0   C } # D for Dihedral angle
| 13> { D 0  4  3  2   C } # D for Dihedral angle
| 14> { D 4  3  2  1   C } # D for Dihedral angle
| 15> { D 3  2  1  0   C } # D for Dihedral angle
| 16> { D 2  1  0  4   C } # D for Dihedral angle
| 17> { D 1  0  4  3   C } # D for Dihedral angle
| 18> { D 14  15  16  17   C } # D for Dihedral angle
| 19> { D 15  16  17  12   C } # D for Dihedral angle
| 20> { D 16  17  12  14   C } # D for Dihedral angle
| 21> { D 17  12  14  15   C } # D for Dihedral angle
| 22> { D 12  14  15  16   C } # D for Dihedral angle
| 23> end
| 24> end
| 25>
| 26>
| 27> #%pal
| 28> #nprocs 8
| 29> #end
| 30>
| 31> * xyz 0 1
| 32> C  -21.048   26.222   46.251
| 33> C  -20.361   27.558   45.944
| 34> C  -20.329   28.222   47.341
| 35> C  -20.110   27.022   48.296
| 36> O  -20.473   25.807   47.535
| 37> H  -20.833   25.428   45.533
| 38> H  -19.344   27.382   45.576
| 39> H  -20.898   28.157   45.201
| 40> H  -19.543   28.978   47.434
| 41> H  -21.289   28.710   47.548
| 42> H  -20.733   27.082   49.195
| 43> H  -19.064   26.913   48.597
| 44> C  -23.272   27.823   44.576
| 45> H  -23.355   28.876   44.266
| 46> C  -22.946   27.704   46.069
| 47> C  -24.331   27.946   46.713
| 48> C  -25.308   27.289   45.706
| 49> O  -24.566   27.145   44.434
| 50> H  -22.569   27.311   43.917
| 51> O  -22.472   26.381   46.366
| 52> H  -22.191   28.425   46.402
| 53> H  -24.414   27.516   47.716
| 54> H  -24.527   29.023   46.794
| 55> H  -26.203   27.895   45.532
| 56> H  -25.614   26.285   46.015
| 57> *
| 58>
| 59>                          ****END OF INPUT****
 Total Charge           Charge          ....    0
 Multiplicity           Mult            ....    1
 Number of Electrons    NEL             ....   86
FINAL SINGLE POINT ENERGY      -538.400961354425
FINAL SINGLE POINT ENERGY      -538.421433925923
FINAL SINGLE POINT ENERGY      -538.423422913770
FINAL SINGLE POINT ENERGY      -538.423771499239
FINAL SINGLE POINT ENERGY      -538.423792078609
FINAL SINGLE POINT ENERGY      -538.423798362279
                    ***********************HURRAY********************

CARTESIAN COORDINATES (ANGSTROEM)
---------------------------------
  C    -21.096450   26.308013   46.336135
  C    -20.154569   27.461518   45.969165
  C    -20.005388   28.206781   47.327800
  C    -20.041757   27.042594   48.348500
  O    -20.632085   25.888275   47.635523
  H    -20.992360   25.429188   45.697470
  H    -19.194124   27.035359   45.662411
  H    -20.516977   28.098999   45.158524
  H    -19.072349   28.775730   47.385217
  H    -20.830780   28.905233   47.494941
  H    -20.647879   27.265816   49.231143
  H    -19.041362   26.738409   48.669514
  C    -23.434006   28.000033   44.553866
  H    -23.665625   29.044896   44.293747
  C    -23.106686   27.880227   46.042233
  C    -24.513697   27.879871   46.671867
  C    -25.369664   27.116990   45.634082
  O    -24.600467   27.137859   44.368280
  H    -22.647435   27.627783   43.894308
  O    -22.520741   26.585893   46.362442
  H    -22.493253   28.709852   46.405762
  H    -24.496448   27.396303   47.650400
  H    -24.863063   28.912014   46.792155
  H    -26.346088   27.584474   45.467012
  H    -25.509747   26.067891   45.904501

 Multiplicity           Mult            ....    1
 Number of Electrons    NEL             ....   86
 Basis Dimension        Dim             ....  127

ORBITAL ENERGIES
----------------

  NO   OCC          E(Eh)            E(eV)
   0   2.0000     -19.139053      -520.8001
   1   2.0000     -19.138218      -520.7774
   2   2.0000     -19.126754      -520.4654
   3   2.0000     -10.280005      -279.7332
   4   2.0000     -10.243124      -278.7296
   5   2.0000     -10.228857      -278.3414
   6   2.0000     -10.223339      -278.1912
   7   2.0000     -10.217284      -278.0264
   8   2.0000     -10.197282      -277.4821
   9   2.0000     -10.197164      -277.4789
  10   2.0000     -10.184301      -277.1289
  11   2.0000      -1.050836       -28.5947
  12   2.0000      -1.014069       -27.5942
  13   2.0000      -0.988927       -26.9101
  14   2.0000      -0.792653       -21.5692
  15   2.0000      -0.785371       -21.3710
  16   2.0000      -0.738662       -20.1000
  17   2.0000      -0.727169       -19.7873
  18   2.0000      -0.621777       -16.9194
  19   2.0000      -0.607447       -16.5295
  20   2.0000      -0.595744       -16.2110
  21   2.0000      -0.564772       -15.3682
  22   2.0000      -0.527061       -14.3421
  23   2.0000      -0.504675       -13.7329
  24   2.0000      -0.488517       -13.2932
  25   2.0000      -0.482548       -13.1308
  26   2.0000      -0.453390       -12.3374
  27   2.0000      -0.448240       -12.1972
  28   2.0000      -0.429469       -11.6864
  29   2.0000      -0.420224       -11.4349
  30   2.0000      -0.410340       -11.1659
  31   2.0000      -0.388389       -10.5686
  32   2.0000      -0.369665       -10.0591
  33   2.0000      -0.368241       -10.0203
  34   2.0000      -0.366409        -9.9705
  35   2.0000      -0.362816        -9.8727
  36   2.0000      -0.350650        -9.5417
  37   2.0000      -0.314729        -8.5642
  38   2.0000      -0.304112        -8.2753
  39   2.0000      -0.291024        -7.9192
  40   2.0000      -0.265253        -7.2179
  41   2.0000      -0.251469        -6.8428
  42   2.0000      -0.232657        -6.3309
  43   0.0000       0.068801         1.8722
  44   0.0000       0.091001         2.4763
  45   0.0000       0.094705         2.5771
  46   0.0000       0.105066         2.8590
  47   0.0000       0.109199         2.9715

MULLIKEN ATOMIC CHARGES
-----------------------
   0 C :    0.320151
   1 C :   -0.303365
   2 C :   -0.312100
   3 C :   -0.002736
   4 O :   -0.495660
   5 H :    0.162710
   6 H :    0.159181
   7 H :    0.144531
   8 H :    0.146986
   9 H :    0.152890
  10 H :    0.147512
  11 H :    0.145638
  12 C :    0.005789
  13 H :    0.119260
  14 C :    0.059555
  15 C :   -0.283390
  16 C :    0.002723
  17 O :   -0.518364
  18 H :    0.152521
  19 O :   -0.522950
  20 H :    0.122697
  21 H :    0.167231
  22 H :    0.136329
  23 H :    0.132881
  24 H :    0.159980
Sum of atomic charges:   -0.0000000

LOEWDIN ATOMIC CHARGES
----------------------
   0 C :    0.182267
   1 C :   -0.232734
   2 C :   -0.221699
   3 C :   -0.030150
   4 O :   -0.312509
   5 H :    0.108558
   6 H :    0.124672
   7 H :    0.114046
   8 H :    0.116631
   9 H :    0.108280
  10 H :    0.104970
  11 H :    0.104226
  12 C :   -0.047359
  13 H :    0.089160
  14 C :    0.036007
  15 C :   -0.221855
  16 C :   -0.026530
  17 O :   -0.329000
  18 H :    0.112391
  19 O :   -0.322575
  20 H :    0.094074
  21 H :    0.130643
  22 H :    0.109506
  23 H :    0.097176
  24 H :    0.111803

  Mayer bond orders larger than 0.100000
B(  0-C ,  1-C ) :   0.9283 B(  0-C ,  4-O ) :   0.9141 B(  0-C ,  5-H ) :   0.9311
B(  0-C , 19-O ) :   0.8733 B(  1-C ,  2-C ) :   0.9510 B(  1-C ,  6-H ) :   0.9342
B(  1-C ,  7-H ) :   0.9298 B(  2-C ,  3-C ) :   0.9477 B(  2-C ,  8-H ) :   0.9452
B(  2-C ,  9-H ) :   0.9363 B(  3-C ,  4-O ) :   0.8478 B(  3-C , 10-H ) :   0.9342
B(  3-C , 11-H ) :   0.9392 B( 12-C , 13-H ) :   0.9099 B( 12-C , 14-C ) :   0.9108
B( 12-C , 17-O ) :   0.8782 B( 12-C , 18-H ) :   0.9331 B( 14-C , 15-C ) :   0.9535
B( 14-C , 19-O ) :   0.8356 B( 14-C , 20-H ) :   0.9041 B( 15-C , 16-C ) :   0.9489
B( 15-C , 21-H ) :   0.9364 B( 15-C , 22-H ) :   0.9420 B( 16-C , 17-O ) :   0.8513
B( 16-C , 23-H ) :   0.9336 B( 16-C , 24-H ) :   0.9352

FINAL SINGLE POINT ENERGY      -538.423798631848

DIPOLE MOMENT
-------------
                                X             Y             Z
Electronic contribution:     -1.30577      -4.60080      -1.13152
Nuclear contribution   :      2.05453       6.12453       1.50694
                        -----------------------------------------
Total Dipole Moment    :      0.74876       1.52372       0.37542
                        -----------------------------------------
Magnitude (a.u.)       :      1.73877
Magnitude (Debye)      :      4.41959

Rotational constants in cm-1:     0.083601     0.020770     0.020010
Rotational constants in MHz :  2506.304429   622.683282   599.895989

                             ****ORCA TERMINATED NORMALLY****
TOTAL RUN TIME: 0 days 0 hours 7 minutes 21 seconds 553 msec
