                         Program Version 4.2.0 -  RELEASE  -
|  1> # Test redundant internal optimization
|  2> #
|  3> ! RKS B3LYP  Opt TightSCF SmallPrint
|  4>
|  5> %basis
|  6>         Basis "6-31G"
|  7> end
|  8>
|  9> %geom
| 10> Constraints
| 11> { D 4  0  15  12  270.0   C } # D for Dihedral angle
| 12> { D 0  15  12  16  90.0   C } # D for Dihedral angle
| 13> { D 0  4  3  2   C } # D for Dihedral angle
| 14> { D 4  3  2  1   C } # D for Dihedral angle
| 15> { D 3  2  1  0   C } # D for Dihedral angle
| 16> { D 2  1  0  4   C } # D for Dihedral angle
| 17> { D 1  0  4  3   C } # D for Dihedral angle
| 18> { D 16  20  19  18   C } # D for Dihedral angle
| 19> { D 20  19  18  17   C } # D for Dihedral angle
| 20> { D 19  18  17  16   C } # D for Dihedral angle
| 21> { D 18  17  16  20   C } # D for Dihedral angle
| 22> { D 17  16  20  19   C } # D for Dihedral angle
| 23> { D 15  12  16  20   C } # D for Dihedral angle
| 24> end
| 25> end
| 26>
| 27>
| 28> #%pal
| 29> #nprocs 8
| 30> #end
| 31>
| 32> * xyz 0 1
| 33> C  -21.048   26.222   46.251
| 34> C  -20.361   27.558   45.944
| 35> C  -20.329   28.222   47.341
| 36> C  -20.110   27.022   48.296
| 37> O  -20.473   25.807   47.535
| 38> H  -20.833   25.428   45.533
| 39> H  -19.344   27.382   45.576
| 40> H  -20.898   28.157   45.201
| 41> H  -19.543   28.978   47.434
| 42> H  -21.289   28.710   47.548
| 43> H  -20.733   27.082   49.195
| 44> H  -19.064   26.913   48.597
| 45> C  -23.420   25.119   46.072
| 46> H  -24.391   25.412   45.655
| 47> H  -22.905   24.490   45.334
| 48> O  -22.586   26.394   46.375
| 49> C  -23.672   24.252   47.337
| 50> C  -24.396   22.948   46.983
| 51> C  -23.235   22.085   46.434
| 52> C  -22.031   22.518   47.308
| 53> O  -22.400   23.812   47.920
| 54> H  -24.177   24.859   48.092
| 55> O  -24.998   22.308   48.263
| 56> H  -25.202   23.088   46.254
| 57> H  -23.436   21.011   46.503
| 58> H  -23.053   22.325   45.380
| 59> H  -21.113   22.646   46.724
| 60> H  -21.836   21.818   48.127
| 61> H  -24.207   22.158   49.007
| 62> *
| 63>
| 64>                          ****END OF INPUT****
 Total Charge           Charge          ....    0
 Multiplicity           Mult            ....    1
 Number of Electrons    NEL             ....  102
FINAL SINGLE POINT ENERGY      -652.830697272417
FINAL SINGLE POINT ENERGY      -652.854332207303
FINAL SINGLE POINT ENERGY      -652.859250138728
FINAL SINGLE POINT ENERGY      -652.859991633714
FINAL SINGLE POINT ENERGY      -652.860097134704
FINAL SINGLE POINT ENERGY      -652.860108812400
                    ***********************HURRAY********************

CARTESIAN COORDINATES (ANGSTROEM)
---------------------------------
  C    -20.996382   26.205772   46.233385
  C    -20.493920   27.622622   45.958025
  C    -20.461682   28.233577   47.380212
  C    -20.048175   27.032631   48.259581
  O    -20.315590   25.822941   47.443255
  H    -20.741164   25.450995   45.481847
  H    -19.484452   27.572024   45.532903
  H    -21.144685   28.163890   45.268623
  H    -19.764329   29.072747   47.463273
  H    -21.461849   28.584387   47.650545
  H    -20.620201   26.961648   49.187694
  H    -18.978685   27.023939   48.492010
  C    -23.251388   25.127600   46.097787
  H    -24.207099   25.519670   45.732284
  H    -22.789374   24.539636   45.287759
  O    -22.436502   26.297068   46.360191
  C    -23.524894   24.234695   47.313296
  C    -24.361467   22.994453   46.967981
  C    -23.273176   22.008890   46.462872
  C    -22.055258   22.348802   47.358453
  O    -22.319677   23.690081   47.932805
  H    -24.013796   24.838762   48.084297
  O    -25.041494   22.482222   48.146834
  H    -25.151942   23.177364   46.238302
  H    -23.611089   20.974866   46.569832
  H    -23.054331   22.192121   45.404672
  H    -21.112814   22.380917   46.804308
  H    -21.942672   21.654998   48.197211
  H    -24.424912   22.514681   48.908764

 Multiplicity           Mult            ....    1
 Number of Electrons    NEL             ....  102
 Basis Dimension        Dim             ....  149

ORBITAL ENERGIES
----------------

  NO   OCC          E(Eh)            E(eV)
   0   2.0000     -19.140461      -520.8384
   1   2.0000     -19.137200      -520.7497
   2   2.0000     -19.136892      -520.7413
   3   2.0000     -19.128904      -520.5239
   4   2.0000     -10.273788      -279.5640
   5   2.0000     -10.241708      -278.6910
   6   2.0000     -10.233590      -278.4701
   7   2.0000     -10.230168      -278.3770
   8   2.0000     -10.226833      -278.2863
   9   2.0000     -10.216316      -278.0001
  10   2.0000     -10.188723      -277.2493
  11   2.0000     -10.178875      -276.9813
  12   2.0000     -10.178584      -276.9734
  13   2.0000      -1.046601       -28.4795
  14   2.0000      -1.033177       -28.1142
  15   2.0000      -1.003547       -27.3079
  16   2.0000      -0.989989       -26.9390
  17   2.0000      -0.786395       -21.3989
  18   2.0000      -0.777799       -21.1650
  19   2.0000      -0.763262       -20.7694
  20   2.0000      -0.726994       -19.7825
  21   2.0000      -0.671676       -18.2772
  22   2.0000      -0.602037       -16.3823
  23   2.0000      -0.593866       -16.1599
  24   2.0000      -0.591090       -16.0844
  25   2.0000      -0.578139       -15.7320
  26   2.0000      -0.522110       -14.2073
  27   2.0000      -0.510394       -13.8885
  28   2.0000      -0.492026       -13.3887
  29   2.0000      -0.480647       -13.0791
  30   2.0000      -0.471535       -12.8311
  31   2.0000      -0.455101       -12.3839
  32   2.0000      -0.450579       -12.2609
  33   2.0000      -0.434177       -11.8146
  34   2.0000      -0.420647       -11.4464
  35   2.0000      -0.408115       -11.1054
  36   2.0000      -0.393561       -10.7093
  37   2.0000      -0.391342       -10.6490
  38   2.0000      -0.372631       -10.1398
  39   2.0000      -0.368281       -10.0214
  40   2.0000      -0.352046        -9.5797
  41   2.0000      -0.349689        -9.5155
  42   2.0000      -0.342081        -9.3085
  43   2.0000      -0.333645        -9.0789
  44   2.0000      -0.316434        -8.6106
  45   2.0000      -0.301696        -8.2096
  46   2.0000      -0.293830        -7.9955
  47   2.0000      -0.269939        -7.3454
  48   2.0000      -0.266801        -7.2600
  49   2.0000      -0.250417        -6.8142
  50   2.0000      -0.230046        -6.2599
  51   0.0000       0.065287         1.7765
  52   0.0000       0.086942         2.3658
  53   0.0000       0.088688         2.4133
  54   0.0000       0.101585         2.7643
  55   0.0000       0.110179         2.9981

MULLIKEN ATOMIC CHARGES
-----------------------
   0 C :    0.301157
   1 C :   -0.260947
   2 C :   -0.298626
   3 C :   -0.002215
   4 O :   -0.488758
   5 H :    0.130447
   6 H :    0.141530
   7 H :    0.150869
   8 H :    0.137395
   9 H :    0.161036
  10 H :    0.150520
  11 H :    0.138190
  12 C :   -0.005341
  13 H :    0.146687
  14 H :    0.115811
  15 O :   -0.519469
  16 C :    0.072069
  17 C :    0.074332
  18 C :   -0.298358
  19 C :   -0.029762
  20 O :   -0.497372
  21 H :    0.165196
  22 O :   -0.602638
  23 H :    0.150165
  24 H :    0.162739
  25 H :    0.142085
  26 H :    0.150481
  27 H :    0.147129
  28 H :    0.365646
Sum of atomic charges:   -0.0000000

LOEWDIN ATOMIC CHARGES
----------------------
   0 C :    0.177053
   1 C :   -0.217861
   2 C :   -0.216694
   3 C :   -0.027578
   4 O :   -0.310227
   5 H :    0.092030
   6 H :    0.111739
   7 H :    0.120500
   8 H :    0.111603
   9 H :    0.118496
  10 H :    0.107311
  11 H :    0.100346
  12 C :   -0.038663
  13 H :    0.112632
  14 H :    0.088333
  15 O :   -0.324188
  16 C :    0.006269
  17 C :    0.033955
  18 C :   -0.242970
  19 C :   -0.037960
  20 O :   -0.312388
  21 H :    0.117818
  22 O :   -0.414656
  23 H :    0.114089
  24 H :    0.126504
  25 H :    0.111152
  26 H :    0.106495
  27 H :    0.103115
  28 H :    0.283741

  Mayer bond orders larger than 0.100000
B(  0-C ,  1-C ) :   0.9454 B(  0-C ,  4-O ) :   0.9315 B(  0-C ,  5-H ) :   0.9208
B(  0-C , 15-O ) :   0.8439 B(  1-C ,  2-C ) :   0.9597 B(  1-C ,  6-H ) :   0.9405
B(  1-C ,  7-H ) :   0.9374 B(  2-C ,  3-C ) :   0.9531 B(  2-C ,  8-H ) :   0.9455
B(  2-C ,  9-H ) :   0.9446 B(  3-C ,  4-O ) :   0.8427 B(  3-C , 10-H ) :   0.9345
B(  3-C , 11-H ) :   0.9400 B( 12-C , 13-H ) :   0.9291 B( 12-C , 14-H ) :   0.9218
B( 12-C , 15-O ) :   0.8691 B( 12-C , 16-C ) :   0.8798 B( 16-C , 17-C ) :   0.8919
B( 16-C , 20-O ) :   0.8740 B( 16-C , 21-H ) :   0.9253 B( 17-C , 18-C ) :   0.9115
B( 17-C , 22-O ) :   0.8907 B( 17-C , 23-H ) :   0.9327 B( 18-C , 19-C ) :   0.9383
B( 18-C , 24-H ) :   0.9372 B( 18-C , 25-H ) :   0.9334 B( 19-C , 20-O ) :   0.8521
B( 19-C , 26-H ) :   0.9331 B( 19-C , 27-H ) :   0.9376 B( 22-O , 28-H ) :   0.7934

FINAL SINGLE POINT ENERGY      -652.860110840400

DIPOLE MOMENT
-------------
                                X             Y             Z
Electronic contribution:     -2.25441      -1.78963       2.15336
Nuclear contribution   :      2.69255       1.91809      -2.90701
                        -----------------------------------------
Total Dipole Moment    :      0.43814       0.12846      -0.75365
                        -----------------------------------------
Magnitude (a.u.)       :      0.88117
Magnitude (Debye)      :      2.23975

Rotational constants in cm-1:     0.061792     0.013495     0.012865
Rotational constants in MHz :  1852.484331   404.578922   385.694346

                             ****ORCA TERMINATED NORMALLY****
TOTAL RUN TIME: 0 days 0 hours 22 minutes 10 seconds 471 msec
