                         Program Version 4.2.0 -  RELEASE  -
|  1> # Test redundant internal optimization
|  2> #
|  3> ! RKS B3LYP  Opt TightSCF SmallPrint
|  4>
|  5> %basis
|  6>         Basis "6-31G"
|  7> end
|  8>
|  9> %geom
| 10> Constraints
| 11> { D 4  0  15  12  180.0   C } # D for Dihedral angle
| 12> { D 0  15  12  16  75.0   C } # D for Dihedral angle
| 13> { D 0  4  3  2   C } # D for Dihedral angle
| 14> { D 4  3  2  1   C } # D for Dihedral angle
| 15> { D 3  2  1  0   C } # D for Dihedral angle
| 16> { D 2  1  0  4   C } # D for Dihedral angle
| 17> { D 1  0  4  3   C } # D for Dihedral angle
| 18> { D 16  20  19  18   C } # D for Dihedral angle
| 19> { D 20  19  18  17   C } # D for Dihedral angle
| 20> { D 19  18  17  16   C } # D for Dihedral angle
| 21> { D 18  17  16  20   C } # D for Dihedral angle
| 22> { D 17  16  20  19   C } # D for Dihedral angle
| 23> { D 15  12  16  20   C } # D for Dihedral angle
| 24> end
| 25> end
| 26>
| 27>
| 28> #%pal
| 29> #nprocs 8
| 30> #end
| 31>
| 32> * xyz 0 1
| 33> C  -21.048   26.222   46.251
| 34> C  -20.361   27.558   45.944
| 35> C  -20.329   28.222   47.341
| 36> C  -20.110   27.022   48.296
| 37> O  -20.473   25.807   47.535
| 38> H  -20.833   25.428   45.533
| 39> H  -19.344   27.382   45.576
| 40> H  -20.898   28.157   45.201
| 41> H  -19.543   28.978   47.434
| 42> H  -21.289   28.710   47.548
| 43> H  -20.733   27.082   49.195
| 44> H  -19.064   26.913   48.597
| 45> C  -23.309   26.834   45.072
| 46> H  -24.316   27.191   45.320
| 47> H  -22.763   27.654   44.589
| 48> O  -22.586   26.394   46.375
| 49> C  -23.440   25.680   44.040
| 50> C  -24.336   24.556   44.572
| 51> C  -25.748   25.139   44.330
| 52> C  -25.579   25.933   43.010
| 53> O  -24.128   26.149   42.832
| 54> H  -22.442   25.358   43.735
| 55> O  -24.125   23.265   43.734
| 56> H  -24.148   24.317   45.625
| 57> H  -26.520   24.367   44.257
| 58> H  -26.023   25.811   45.153
| 59> H  -26.086   26.903   43.037
| 60> H  -25.932   25.374   42.140
| 61> H  -24.308   23.479   42.674
| 62> *
| 63>
| 64>                          ****END OF INPUT****
 Total Charge           Charge          ....    0
 Multiplicity           Mult            ....    1
 Number of Electrons    NEL             ....  102
FINAL SINGLE POINT ENERGY      -652.834522779735
FINAL SINGLE POINT ENERGY      -652.856529996630
FINAL SINGLE POINT ENERGY      -652.860133940115
FINAL SINGLE POINT ENERGY      -652.860737399389
FINAL SINGLE POINT ENERGY      -652.860833805140
FINAL SINGLE POINT ENERGY      -652.860845482308
FINAL SINGLE POINT ENERGY      -652.860847750273
                    ***********************HURRAY********************

CARTESIAN COORDINATES (ANGSTROEM)
---------------------------------
  C    -21.083093   26.220338   46.166590
  C    -20.316845   27.514380   45.900078
  C    -20.362157   28.206769   47.284979
  C    -20.274130   27.018047   48.263455
  O    -20.638970   25.816127   47.467269
  H    -20.869901   25.397596   45.479113
  H    -19.286809   27.263194   45.621414
  H    -20.740540   28.128976   45.101592
  H    -19.545339   28.921881   47.421168
  H    -21.311037   28.737920   47.404672
  H    -20.964746   27.099033   49.106152
  H    -19.260521   26.847217   48.637344
  C    -23.241247   26.858963   45.071413
  H    -24.205797   27.220807   45.436478
  H    -22.738610   27.692087   44.564583
  O    -22.528319   26.436266   46.267821
  C    -23.435664   25.718569   44.065044
  C    -24.293237   24.548088   44.566702
  C    -25.725517   25.106999   44.378360
  C    -25.608376   25.961961   43.091824
  O    -24.159462   26.224139   42.891301
  H    -22.468486   25.357262   43.701504
  O    -24.065174   23.357791   43.762148
  H    -24.064987   24.262218   45.592698
  H    -26.446469   24.291359   44.282631
  H    -26.013419   25.717775   45.240503
  H    -26.135069   26.918163   43.164158
  H    -25.964695   25.434413   42.201589
  H    -24.065383   23.606661   42.813415

 Multiplicity           Mult            ....    1
 Number of Electrons    NEL             ....  102
 Basis Dimension        Dim             ....  149

ORBITAL ENERGIES
----------------

  NO   OCC          E(Eh)            E(eV)
   0   2.0000     -19.147024      -521.0170
   1   2.0000     -19.144599      -520.9510
   2   2.0000     -19.141414      -520.8644
   3   2.0000     -19.136179      -520.7219
   4   2.0000     -10.281432      -279.7720
   5   2.0000     -10.236917      -278.5607
   6   2.0000     -10.234901      -278.5058
   7   2.0000     -10.233714      -278.4735
   8   2.0000     -10.232859      -278.4502
   9   2.0000     -10.225774      -278.2574
  10   2.0000     -10.189991      -277.2838
  11   2.0000     -10.188648      -277.2472
  12   2.0000     -10.188580      -277.2454
  13   2.0000      -1.054660       -28.6988
  14   2.0000      -1.037367       -28.2282
  15   2.0000      -1.005586       -27.3634
  16   2.0000      -0.995404       -27.0863
  17   2.0000      -0.788682       -21.4611
  18   2.0000      -0.780394       -21.2356
  19   2.0000      -0.767890       -20.8953
  20   2.0000      -0.735063       -20.0021
  21   2.0000      -0.678500       -18.4629
  22   2.0000      -0.606288       -16.4979
  23   2.0000      -0.603771       -16.4294
  24   2.0000      -0.601050       -16.3554
  25   2.0000      -0.571759       -15.5583
  26   2.0000      -0.525349       -14.2955
  27   2.0000      -0.516551       -14.0561
  28   2.0000      -0.496781       -13.5181
  29   2.0000      -0.493484       -13.4284
  30   2.0000      -0.472293       -12.8517
  31   2.0000      -0.461438       -12.5564
  32   2.0000      -0.454631       -12.3711
  33   2.0000      -0.438494       -11.9320
  34   2.0000      -0.424304       -11.5459
  35   2.0000      -0.411671       -11.2021
  36   2.0000      -0.406176       -11.0526
  37   2.0000      -0.393543       -10.7089
  38   2.0000      -0.378071       -10.2878
  39   2.0000      -0.368721       -10.0334
  40   2.0000      -0.364435        -9.9168
  41   2.0000      -0.357578        -9.7302
  42   2.0000      -0.356150        -9.6913
  43   2.0000      -0.332525        -9.0485
  44   2.0000      -0.316422        -8.6103
  45   2.0000      -0.308658        -8.3990
  46   2.0000      -0.304722        -8.2919
  47   2.0000      -0.274340        -7.4652
  48   2.0000      -0.264855        -7.2071
  49   2.0000      -0.259000        -7.0477
  50   2.0000      -0.240863        -6.5542
  51   0.0000       0.063322         1.7231
  52   0.0000       0.072508         1.9730
  53   0.0000       0.092576         2.5191
  54   0.0000       0.097279         2.6471
  55   0.0000       0.099610         2.7105

MULLIKEN ATOMIC CHARGES
-----------------------
   0 C :    0.298996
   1 C :   -0.283866
   2 C :   -0.296223
   3 C :   -0.000977
   4 O :   -0.500820
   5 H :    0.150122
   6 H :    0.150581
   7 H :    0.146504
   8 H :    0.143244
   9 H :    0.158229
  10 H :    0.154842
  11 H :    0.143042
  12 C :   -0.025136
  13 H :    0.150653
  14 H :    0.140845
  15 O :   -0.509470
  16 C :    0.048280
  17 C :    0.091082
  18 C :   -0.299333
  19 C :   -0.033568
  20 O :   -0.527816
  21 H :    0.154893
  22 O :   -0.602742
  23 H :    0.179723
  24 H :    0.164901
  25 H :    0.148202
  26 H :    0.148528
  27 H :    0.146354
  28 H :    0.360931
Sum of atomic charges:   -0.0000000

LOEWDIN ATOMIC CHARGES
----------------------
   0 C :    0.179133
   1 C :   -0.231999
   2 C :   -0.216235
   3 C :   -0.024716
   4 O :   -0.301478
   5 H :    0.099536
   6 H :    0.117497
   7 H :    0.114771
   8 H :    0.114894
   9 H :    0.116789
  10 H :    0.109916
  11 H :    0.103269
  12 C :   -0.046153
  13 H :    0.112168
  14 H :    0.099826
  15 O :   -0.332309
  16 C :    0.002447
  17 C :    0.038076
  18 C :   -0.241087
  19 C :   -0.038717
  20 O :   -0.332162
  21 H :    0.109907
  22 O :   -0.414302
  23 H :    0.129333
  24 H :    0.127957
  25 H :    0.115558
  26 H :    0.104849
  27 H :    0.102715
  28 H :    0.280520

  Mayer bond orders larger than 0.100000
B(  0-C ,  1-C ) :   0.9294 B(  0-C ,  4-O ) :   0.9393 B(  0-C ,  5-H ) :   0.9184
B(  0-C , 15-O ) :   0.8270 B(  1-C ,  2-C ) :   0.9501 B(  1-C ,  6-H ) :   0.9338
B(  1-C ,  7-H ) :   0.9297 B(  2-C ,  3-C ) :   0.9563 B(  2-C ,  8-H ) :   0.9450
B(  2-C ,  9-H ) :   0.9453 B(  3-C ,  4-O ) :   0.8343 B(  3-C , 10-H ) :   0.9345
B(  3-C , 11-H ) :   0.9397 B( 12-C , 13-H ) :   0.9393 B( 12-C , 14-H ) :   0.9104
B( 12-C , 15-O ) :   0.8531 B( 12-C , 16-C ) :   0.8759 B( 16-C , 17-C ) :   0.9116
B( 16-C , 20-O ) :   0.8383 B( 16-C , 21-H ) :   0.9268 B( 17-C , 18-C ) :   0.9139
B( 17-C , 22-O ) :   0.8868 B( 17-C , 23-H ) :   0.9231 B( 18-C , 19-C ) :   0.9424
B( 18-C , 24-H ) :   0.9370 B( 18-C , 25-H ) :   0.9339 B( 19-C , 20-O ) :   0.8407
B( 19-C , 26-H ) :   0.9351 B( 19-C , 27-H ) :   0.9383 B( 22-O , 28-H ) :   0.7975

FINAL SINGLE POINT ENERGY      -652.860847496656

DIPOLE MOMENT
-------------
                                X             Y             Z
Electronic contribution:     -0.14466      -4.35241      -1.08453
Nuclear contribution   :      0.03207       5.62254       0.81164
                        -----------------------------------------
Total Dipole Moment    :     -0.11259       1.27013      -0.27289
                        -----------------------------------------
Magnitude (a.u.)       :      1.30398
Magnitude (Debye)      :      3.31446

Rotational constants in cm-1:     0.062363     0.012215     0.011436
Rotational constants in MHz :  1869.593493   366.188751   342.835339

                             ****ORCA TERMINATED NORMALLY****
TOTAL RUN TIME: 0 days 0 hours 31 minutes 22 seconds 70 msec
