                         Program Version 4.2.0 -  RELEASE  -
|  1> # Test redundant internal optimization
|  2> #
|  3> ! RKS B3LYP  Opt TightSCF SmallPrint
|  4>
|  5> %basis
|  6>         Basis "6-31G"
|  7> end
|  8>
|  9> %geom
| 10> Constraints
| 11> { D 4  0  15  12  45.0   C } # D for Dihedral angle
| 12> { D 0  15  12  16  165.0   C } # D for Dihedral angle
| 13> { D 0  4  3  2   C } # D for Dihedral angle
| 14> { D 4  3  2  1   C } # D for Dihedral angle
| 15> { D 3  2  1  0   C } # D for Dihedral angle
| 16> { D 2  1  0  4   C } # D for Dihedral angle
| 17> { D 1  0  4  3   C } # D for Dihedral angle
| 18> { D 16  20  19  18   C } # D for Dihedral angle
| 19> { D 20  19  18  17   C } # D for Dihedral angle
| 20> { D 19  18  17  16   C } # D for Dihedral angle
| 21> { D 18  17  16  20   C } # D for Dihedral angle
| 22> { D 17  16  20  19   C } # D for Dihedral angle
| 23> { D 15  12  16  20   C } # D for Dihedral angle
| 24> end
| 25> end
| 26>
| 27>
| 28> #%pal
| 29> #nprocs 8
| 30> #end
| 31>
| 32> * xyz 0 1
| 33> C  -21.048   26.222   46.251
| 34> C  -20.361   27.558   45.944
| 35> C  -20.329   28.222   47.341
| 36> C  -20.110   27.022   48.296
| 37> O  -20.473   25.807   47.535
| 38> H  -20.833   25.428   45.533
| 39> H  -19.344   27.382   45.576
| 40> H  -20.898   28.157   45.201
| 41> H  -19.543   28.978   47.434
| 42> H  -21.289   28.710   47.548
| 43> H  -20.733   27.082   49.195
| 44> H  -19.064   26.913   48.597
| 45> C  -23.065   27.161   47.638
| 46> H  -22.970   26.510   48.515
| 47> H  -22.446   28.053   47.803
| 48> O  -22.586   26.394   46.375
| 49> C  -24.544   27.626   47.533
| 50> C  -24.774   28.472   46.274
| 51> C  -24.878   27.382   45.180
| 52> C  -25.584   26.214   45.913
| 53> O  -25.433   26.473   47.361
| 54> H  -24.832   28.116   48.465
| 55> O  -26.110   29.254   46.396
| 56> H  -23.969   29.189   46.084
| 57> H  -25.433   27.718   44.298
| 58> H  -23.876   27.082   44.851
| 59> H  -25.142   25.240   45.674
| 60> H  -26.657   26.177   45.703
| 61> H  -26.931   28.555   46.587
| 62> *
| 63>
| 64>                          ****END OF INPUT****
 Total Charge           Charge          ....    0
 Multiplicity           Mult            ....    1
 Number of Electrons    NEL             ....  102
FINAL SINGLE POINT ENERGY      -652.815178832881
FINAL SINGLE POINT ENERGY      -652.841730943335
FINAL SINGLE POINT ENERGY      -652.855328208341
FINAL SINGLE POINT ENERGY      -652.857717424277
FINAL SINGLE POINT ENERGY      -652.858053945802
FINAL SINGLE POINT ENERGY      -652.858103649127
FINAL SINGLE POINT ENERGY      -652.858109117978
                    ***********************HURRAY********************

CARTESIAN COORDINATES (ANGSTROEM)
---------------------------------
  C    -21.174664   26.305769   46.456425
  C    -20.367393   27.522505   45.981253
  C    -20.058734   28.251769   47.321908
  C    -19.871200   27.073463   48.309599
  O    -20.495756   25.891037   47.662619
  H    -21.109277   25.463509   45.765177
  H    -19.444216   27.166632   45.512193
  H    -20.915110   28.139185   45.264179
  H    -19.157506   28.870054   47.257961
  H    -20.883314   28.906893   47.614022
  H    -20.348451   27.239810   49.279850
  H    -18.817715   26.826205   48.467369
  C    -23.177839   27.172414   47.734602
  H    -23.130625   26.516267   48.610476
  H    -22.640611   28.100892   47.962132
  O    -22.604814   26.472774   46.592364
  C    -24.636658   27.530137   47.456372
  C    -24.911079   28.445675   46.252980
  C    -24.957828   27.425663   45.083354
  C    -25.602092   26.177941   45.737336
  O    -25.462123   26.351596   47.202466
  H    -25.028058   27.994467   48.370352
  O    -26.172700   29.150639   46.424759
  H    -24.164225   29.228478   46.114679
  H    -25.544021   27.820871   44.249031
  H    -23.943657   27.203100   44.750717
  H    -25.100352   25.251786   45.447022
  H    -26.672718   26.089426   45.525035
  H    -26.862263   28.508039   46.694767

 Multiplicity           Mult            ....    1
 Number of Electrons    NEL             ....  102
 Basis Dimension        Dim             ....  149

ORBITAL ENERGIES
----------------

  NO   OCC          E(Eh)            E(eV)
   0   2.0000     -19.149672      -521.0891
   1   2.0000     -19.148195      -521.0489
   2   2.0000     -19.135567      -520.7052
   3   2.0000     -19.134338      -520.6718
   4   2.0000     -10.284212      -279.8476
   5   2.0000     -10.236495      -278.5492
   6   2.0000     -10.235770      -278.5295
   7   2.0000     -10.233668      -278.4723
   8   2.0000     -10.233329      -278.4630
   9   2.0000     -10.220049      -278.1017
  10   2.0000     -10.199032      -277.5298
  11   2.0000     -10.195192      -277.4253
  12   2.0000     -10.175026      -276.8765
  13   2.0000      -1.058255       -28.7966
  14   2.0000      -1.031604       -28.0714
  15   2.0000      -1.004353       -27.3298
  16   2.0000      -0.996038       -27.1036
  17   2.0000      -0.794553       -21.6209
  18   2.0000      -0.780830       -21.2475
  19   2.0000      -0.764474       -20.8024
  20   2.0000      -0.736757       -20.0482
  21   2.0000      -0.676985       -18.4217
  22   2.0000      -0.610190       -16.6041
  23   2.0000      -0.604856       -16.4590
  24   2.0000      -0.595960       -16.2169
  25   2.0000      -0.569657       -15.5012
  26   2.0000      -0.523244       -14.2382
  27   2.0000      -0.515592       -14.0300
  28   2.0000      -0.501277       -13.6404
  29   2.0000      -0.490413       -13.3448
  30   2.0000      -0.473349       -12.8805
  31   2.0000      -0.454873       -12.3777
  32   2.0000      -0.450718       -12.2647
  33   2.0000      -0.439332       -11.9548
  34   2.0000      -0.424856       -11.5609
  35   2.0000      -0.415749       -11.3131
  36   2.0000      -0.406443       -11.0599
  37   2.0000      -0.385890       -10.5006
  38   2.0000      -0.383773       -10.4430
  39   2.0000      -0.368446       -10.0259
  40   2.0000      -0.366983        -9.9861
  41   2.0000      -0.360990        -9.8230
  42   2.0000      -0.349449        -9.5090
  43   2.0000      -0.331237        -9.0134
  44   2.0000      -0.322340        -8.7713
  45   2.0000      -0.312577        -8.5056
  46   2.0000      -0.300418        -8.1748
  47   2.0000      -0.269931        -7.3452
  48   2.0000      -0.263833        -7.1793
  49   2.0000      -0.255963        -6.9651
  50   2.0000      -0.240078        -6.5329
  51   0.0000       0.060206         1.6383
  52   0.0000       0.075592         2.0570
  53   0.0000       0.087282         2.3751
  54   0.0000       0.102084         2.7778
  55   0.0000       0.103948         2.8286

MULLIKEN ATOMIC CHARGES
-----------------------
   0 C :    0.304028
   1 C :   -0.268060
   2 C :   -0.319923
   3 C :   -0.012464
   4 O :   -0.506691
   5 H :    0.165470
   6 H :    0.154883
   7 H :    0.150489
   8 H :    0.148938
   9 H :    0.153673
  10 H :    0.146184
  11 H :    0.152255
  12 C :    0.005911
  13 H :    0.164676
  14 H :    0.115827
  15 O :   -0.530336
  16 C :    0.067844
  17 C :    0.077328
  18 C :   -0.283149
  19 C :   -0.015529
  20 O :   -0.524826
  21 H :    0.152264
  22 O :   -0.604590
  23 H :    0.142505
  24 H :    0.146228
  25 H :    0.164943
  26 H :    0.153528
  27 H :    0.134823
  28 H :    0.363772
Sum of atomic charges:   -0.0000000

LOEWDIN ATOMIC CHARGES
----------------------
   0 C :    0.177486
   1 C :   -0.227409
   2 C :   -0.224202
   3 C :   -0.033574
   4 O :   -0.318149
   5 H :    0.112505
   6 H :    0.121044
   7 H :    0.119220
   8 H :    0.117353
   9 H :    0.109090
  10 H :    0.103559
  11 H :    0.107650
  12 C :   -0.038386
  13 H :    0.114747
  14 H :    0.091103
  15 O :   -0.324619
  16 C :    0.015746
  17 C :    0.038305
  18 C :   -0.241312
  19 C :   -0.031630
  20 O :   -0.328010
  21 H :    0.114297
  22 O :   -0.417734
  23 H :    0.111546
  24 H :    0.117284
  25 H :    0.125745
  26 H :    0.109902
  27 H :    0.095840
  28 H :    0.282602

  Mayer bond orders larger than 0.100000
B(  0-C ,  1-C ) :   0.9154 B(  0-C ,  4-O ) :   0.9061 B(  0-C ,  5-H ) :   0.9364
B(  0-C , 15-O ) :   0.8771 B(  1-C ,  2-C ) :   0.9543 B(  1-C ,  6-H ) :   0.9342
B(  1-C ,  7-H ) :   0.9371 B(  2-C ,  3-C ) :   0.9476 B(  2-C ,  8-H ) :   0.9441
B(  2-C ,  9-H ) :   0.9381 B(  3-C ,  4-O ) :   0.8403 B(  3-C , 10-H ) :   0.9333
B(  3-C , 11-H ) :   0.9389 B( 12-C , 13-H ) :   0.9176 B( 12-C , 14-H ) :   0.8955
B( 12-C , 15-O ) :   0.8336 B( 12-C , 16-C ) :   0.9107 B( 16-C , 17-C ) :   0.9069
B( 16-C , 20-O ) :   0.8761 B( 16-C , 21-H ) :   0.9231 B( 17-C , 18-C ) :   0.9242
B( 17-C , 22-O ) :   0.8907 B( 17-C , 23-H ) :   0.9364 B( 18-C , 19-C ) :   0.9469
B( 18-C , 24-H ) :   0.9374 B( 18-C , 25-H ) :   0.9200 B( 19-C , 20-O ) :   0.8393
B( 19-C , 26-H ) :   0.9343 B( 19-C , 27-H ) :   0.9375 B( 22-O , 28-H ) :   0.7950

FINAL SINGLE POINT ENERGY      -652.858107998057

DIPOLE MOMENT
-------------
                                X             Y             Z
Electronic contribution:     -3.91711      -3.01502       1.39623
Nuclear contribution   :      4.94079       3.65718      -1.67292
                        -----------------------------------------
Total Dipole Moment    :      1.02368       0.64216      -0.27669
                        -----------------------------------------
Magnitude (a.u.)       :      1.23969
Magnitude (Debye)      :      3.15105

Rotational constants in cm-1:     0.055085     0.014110     0.013581
Rotational constants in MHz :  1651.404556   422.998422   407.160460

                             ****ORCA TERMINATED NORMALLY****
TOTAL RUN TIME: 0 days 1 hours 13 minutes 33 seconds 674 msec
