                         Program Version 4.2.0 -  RELEASE  -
|  1> # Test redundant internal optimization
|  2> #
|  3> ! RKS B3LYP  Opt TightSCF SmallPrint
|  4>
|  5> %basis
|  6>         Basis "6-31G"
|  7> end
|  8>
|  9> %geom
| 10> Constraints
| 11> { D 4  0  15  12  0.0   C } # D for Dihedral angle
| 12> { D 0  15  12  16  255.0   C } # D for Dihedral angle
| 13> { D 0  4  3  2   C } # D for Dihedral angle
| 14> { D 4  3  2  1   C } # D for Dihedral angle
| 15> { D 3  2  1  0   C } # D for Dihedral angle
| 16> { D 2  1  0  4   C } # D for Dihedral angle
| 17> { D 1  0  4  3   C } # D for Dihedral angle
| 18> { D 16  20  19  18   C } # D for Dihedral angle
| 19> { D 20  19  18  17   C } # D for Dihedral angle
| 20> { D 19  18  17  16   C } # D for Dihedral angle
| 21> { D 18  17  16  20   C } # D for Dihedral angle
| 22> { D 17  16  20  19   C } # D for Dihedral angle
| 23> { D 15  12  16  20   C } # D for Dihedral angle
| 24> end
| 25> end
| 26>
| 27>
| 28> #%pal
| 29> #nprocs 8
| 30> #end
| 31>
| 32> * xyz 0 1
| 33> C  -21.048   26.222   46.251
| 34> C  -20.361   27.558   45.944
| 35> C  -20.329   28.222   47.341
| 36> C  -20.110   27.022   48.296
| 37> O  -20.473   25.807   47.535
| 38> H  -20.833   25.428   45.533
| 39> H  -19.344   27.382   45.576
| 40> H  -20.898   28.157   45.201
| 41> H  -19.543   28.978   47.434
| 42> H  -21.289   28.710   47.548
| 43> H  -20.733   27.082   49.195
| 44> H  -19.064   26.913   48.597
| 45> C  -23.172   26.101   47.783
| 46> H  -22.358   26.087   48.518
| 47> H  -23.883   26.884   48.074
| 48> O  -22.586   26.394   46.375
| 49> C  -23.915   24.738   47.853
| 50> C  -22.953   23.567   47.625
| 51> C  -22.276   23.443   49.012
| 52> C  -23.419   23.805   49.994
| 53> O  -24.447   24.512   49.201
| 54> H  -24.769   24.761   47.172
| 55> O  -23.752   22.279   47.288
| 56> H  -22.236   23.748   46.817
| 57> H  -21.867   22.445   49.196
| 58> H  -21.454   24.164   49.094
| 59> H  -23.082   24.455   50.807
| 60> H  -23.895   22.919   50.423
| 61> H  -24.478   22.075   48.086
| 62> *
| 63>
| 64>                          ****END OF INPUT****
 Total Charge           Charge          ....    0
 Multiplicity           Mult            ....    1
 Number of Electrons    NEL             ....  102
FINAL SINGLE POINT ENERGY      -652.835031537842
FINAL SINGLE POINT ENERGY      -652.857497168864
FINAL SINGLE POINT ENERGY      -652.861315160143
FINAL SINGLE POINT ENERGY      -652.862662828529
FINAL SINGLE POINT ENERGY      -652.862798240363
FINAL SINGLE POINT ENERGY      -652.862824724522
                    ***********************HURRAY********************

CARTESIAN COORDINATES (ANGSTROEM)
---------------------------------
  C    -21.063476   26.222474   46.355592
  C    -20.472959   27.573629   45.947551
  C    -20.318110   28.277451   47.316977
  C    -19.946561   27.119608   48.269515
  O    -20.347822   25.869072   47.560018
  H    -20.880559   25.415221   45.642554
  H    -19.497888   27.413592   45.473132
  H    -21.125058   28.110505   45.255978
  H    -19.554832   29.061351   47.303994
  H    -21.268413   28.734684   47.610858
  H    -20.466812   27.162764   49.230145
  H    -18.870345   27.039976   48.445734
  C    -23.139647   26.080440   47.804900
  H    -22.409000   26.136435   48.616266
  H    -23.886618   26.866187   47.944672
  O    -22.509459   26.324610   46.513506
  C    -23.840099   24.716606   47.830469
  C    -22.931377   23.491491   47.658436
  C    -22.331432   23.345284   49.081037
  C    -23.498773   23.777174   50.003241
  O    -24.451546   24.533607   49.153469
  H    -24.648828   24.701703   47.094056
  O    -23.712403   22.325028   47.270322
  H    -22.178295   23.605299   46.881475
  H    -22.006765   22.317508   49.261183
  H    -21.465484   24.007153   49.177926
  H    -23.174037   24.416933   50.830101
  H    -24.045742   22.924793   50.418137
  H    -24.524660   22.287421   47.817755

 Multiplicity           Mult            ....    1
 Number of Electrons    NEL             ....  102
 Basis Dimension        Dim             ....  149

ORBITAL ENERGIES
----------------

  NO   OCC          E(Eh)            E(eV)
   0   2.0000     -19.160613      -521.3868
   1   2.0000     -19.141445      -520.8652
   2   2.0000     -19.139795      -520.8203
   3   2.0000     -19.129361      -520.5364
   4   2.0000     -10.285345      -279.8785
   5   2.0000     -10.240014      -278.6449
   6   2.0000     -10.230486      -278.3857
   7   2.0000     -10.227167      -278.2954
   8   2.0000     -10.226417      -278.2749
   9   2.0000     -10.225282      -278.2441
  10   2.0000     -10.196389      -277.4578
  11   2.0000     -10.190461      -277.2965
  12   2.0000     -10.177815      -276.9524
  13   2.0000      -1.061024       -28.8719
  14   2.0000      -1.030418       -28.0391
  15   2.0000      -0.999415       -27.1955
  16   2.0000      -0.995860       -27.0987
  17   2.0000      -0.796626       -21.6773
  18   2.0000      -0.773506       -21.0482
  19   2.0000      -0.764968       -20.8158
  20   2.0000      -0.736200       -20.0330
  21   2.0000      -0.673456       -18.3257
  22   2.0000      -0.609919       -16.5967
  23   2.0000      -0.596860       -16.2414
  24   2.0000      -0.595482       -16.2039
  25   2.0000      -0.574207       -15.6250
  26   2.0000      -0.525182       -14.2909
  27   2.0000      -0.512973       -13.9587
  28   2.0000      -0.506152       -13.7731
  29   2.0000      -0.484330       -13.1793
  30   2.0000      -0.473268       -12.8783
  31   2.0000      -0.458417       -12.4742
  32   2.0000      -0.452548       -12.3145
  33   2.0000      -0.432024       -11.7560
  34   2.0000      -0.420817       -11.4510
  35   2.0000      -0.411581       -11.1997
  36   2.0000      -0.407530       -11.0895
  37   2.0000      -0.386302       -10.5118
  38   2.0000      -0.379068       -10.3150
  39   2.0000      -0.367017        -9.9870
  40   2.0000      -0.360400        -9.8070
  41   2.0000      -0.358043        -9.7429
  42   2.0000      -0.354334        -9.6419
  43   2.0000      -0.334958        -9.1147
  44   2.0000      -0.323799        -8.8110
  45   2.0000      -0.310752        -8.4560
  46   2.0000      -0.300856        -8.1867
  47   2.0000      -0.274645        -7.4735
  48   2.0000      -0.268463        -7.3053
  49   2.0000      -0.258062        -7.0222
  50   2.0000      -0.233969        -6.3666
  51   0.0000       0.066547         1.8108
  52   0.0000       0.070499         1.9184
  53   0.0000       0.090605         2.4655
  54   0.0000       0.096654         2.6301
  55   0.0000       0.107619         2.9285

MULLIKEN ATOMIC CHARGES
-----------------------
   0 C :    0.302818
   1 C :   -0.257194
   2 C :   -0.306906
   3 C :   -0.022473
   4 O :   -0.517749
   5 H :    0.160218
   6 H :    0.146005
   7 H :    0.164843
   8 H :    0.150122
   9 H :    0.158894
  10 H :    0.146228
  11 H :    0.155026
  12 C :   -0.015657
  13 H :    0.143371
  14 H :    0.157090
  15 O :   -0.540464
  16 C :    0.056261
  17 C :    0.090859
  18 C :   -0.306081
  19 C :   -0.031583
  20 O :   -0.528709
  21 H :    0.163526
  22 O :   -0.604957
  23 H :    0.166194
  24 H :    0.154766
  25 H :    0.168703
  26 H :    0.140872
  27 H :    0.144501
  28 H :    0.361476
Sum of atomic charges:   -0.0000000

LOEWDIN ATOMIC CHARGES
----------------------
   0 C :    0.180644
   1 C :   -0.219183
   2 C :   -0.218901
   3 C :   -0.033508
   4 O :   -0.322810
   5 H :    0.104343
   6 H :    0.114551
   7 H :    0.128053
   8 H :    0.118950
   9 H :    0.116708
  10 H :    0.102237
  11 H :    0.108996
  12 C :   -0.041369
  13 H :    0.103708
  14 H :    0.114083
  15 O :   -0.341018
  16 C :    0.009828
  17 C :    0.039457
  18 C :   -0.244941
  19 C :   -0.039418
  20 O :   -0.333547
  21 H :    0.116516
  22 O :   -0.417158
  23 H :    0.122287
  24 H :    0.123760
  25 H :    0.124805
  26 H :    0.100926
  27 H :    0.101284
  28 H :    0.280716

  Mayer bond orders larger than 0.100000
B(  0-C ,  1-C ) :   0.9312 B(  0-C ,  4-O ) :   0.8997 B(  0-C ,  5-H ) :   0.9256
B(  0-C , 15-O ) :   0.8446 B(  1-C ,  2-C ) :   0.9528 B(  1-C ,  6-H ) :   0.9349
B(  1-C ,  7-H ) :   0.9355 B(  2-C ,  3-C ) :   0.9534 B(  2-C ,  8-H ) :   0.9443
B(  2-C ,  9-H ) :   0.9448 B(  3-C ,  4-O ) :   0.8245 B(  3-C , 10-H ) :   0.9310
B(  3-C , 11-H ) :   0.9401 B( 12-C , 13-H ) :   0.9149 B( 12-C , 14-H ) :   0.9322
B( 12-C , 15-O ) :   0.8320 B( 12-C , 16-C ) :   0.8896 B( 16-C , 17-C ) :   0.9145
B( 16-C , 20-O ) :   0.8351 B( 16-C , 21-H ) :   0.9272 B( 17-C , 18-C ) :   0.9140
B( 17-C , 22-O ) :   0.8891 B( 17-C , 23-H ) :   0.9269 B( 18-C , 19-C ) :   0.9421
B( 18-C , 24-H ) :   0.9391 B( 18-C , 25-H ) :   0.9220 B( 19-C , 20-O ) :   0.8425
B( 19-C , 26-H ) :   0.9363 B( 19-C , 27-H ) :   0.9381 B( 22-O , 28-H ) :   0.7964

FINAL SINGLE POINT ENERGY      -652.862827335415

DIPOLE MOMENT
-------------
                                X             Y             Z
Electronic contribution:     -4.10039      -3.52483      -2.10526
Nuclear contribution   :      5.09743       4.55817       2.71443
                        -----------------------------------------
Total Dipole Moment    :      0.99705       1.03334       0.60917
                        -----------------------------------------
Magnitude (a.u.)       :      1.55980
Magnitude (Debye)      :      3.96471

Rotational constants in cm-1:     0.052456     0.015100     0.014587
Rotational constants in MHz :  1572.581432   452.673249   437.303364

                             ****ORCA TERMINATED NORMALLY****
TOTAL RUN TIME: 0 days 0 hours 15 minutes 11 seconds 433 msec
