                         Program Version 4.2.0 -  RELEASE  -
|  1> # Test redundant internal optimization
|  2> #
|  3> ! RKS B3LYP  Opt TightSCF SmallPrint
|  4>
|  5> %basis
|  6>         Basis "6-31G"
|  7> end
|  8>
|  9> %geom
| 10> Constraints
| 11> { D 4  0  15  12  225.0   C } # D for Dihedral angle
| 12> { D 0  15  12  16  75.0   C } # D for Dihedral angle
| 13> { D 0  4  3  2   C } # D for Dihedral angle
| 14> { D 4  3  2  1   C } # D for Dihedral angle
| 15> { D 3  2  1  0   C } # D for Dihedral angle
| 16> { D 2  1  0  4   C } # D for Dihedral angle
| 17> { D 1  0  4  3   C } # D for Dihedral angle
| 18> { D 16  20  19  18   C } # D for Dihedral angle
| 19> { D 20  19  18  17   C } # D for Dihedral angle
| 20> { D 19  18  17  16   C } # D for Dihedral angle
| 21> { D 18  17  16  20   C } # D for Dihedral angle
| 22> { D 17  16  20  19   C } # D for Dihedral angle
| 23> { D 15  12  16  20   C } # D for Dihedral angle
| 24> end
| 25> end
| 26>
| 27>
| 28> #%pal
| 29> #nprocs 8
| 30> #end
| 31>
| 32> * xyz 0 1
| 33> C  -21.048   26.222   46.251
| 34> C  -20.361   27.558   45.944
| 35> C  -20.329   28.222   47.341
| 36> C  -20.110   27.022   48.296
| 37> O  -20.473   25.807   47.535
| 38> H  -20.833   25.428   45.533
| 39> H  -19.344   27.382   45.576
| 40> H  -20.898   28.157   45.201
| 41> H  -19.543   28.978   47.434
| 42> H  -21.289   28.710   47.548
| 43> H  -20.733   27.082   49.195
| 44> H  -19.064   26.913   48.597
| 45> C  -23.415   25.773   45.218
| 46> H  -24.435   26.176   45.246
| 47> H  -22.972   26.029   44.247
| 48> O  -22.586   26.394   46.375
| 49> C  -23.501   24.224   45.304
| 50> C  -22.105   23.592   45.360
| 51> C  -21.723   23.807   46.844
| 52> C  -23.076   23.649   47.583
| 53> O  -24.134   23.814   46.562
| 54> H  -24.131   23.854   44.494
| 55> H  -22.167   22.523   45.129
| 56> O  -21.097   24.248   44.378
| 57> H  -20.969   23.095   47.197
| 58> H  -21.321   24.818   46.987
| 59> H  -23.215   24.398   48.369
| 60> H  -23.200   22.652   48.016
| 61> H  -21.019   25.320   44.592
| 62> *
| 63>
| 64>                          ****END OF INPUT****
 Total Charge           Charge          ....    0
 Multiplicity           Mult            ....    1
 Number of Electrons    NEL             ....  102
FINAL SINGLE POINT ENERGY      -652.709655810742
FINAL SINGLE POINT ENERGY      -652.816518193759
FINAL SINGLE POINT ENERGY      -652.841349944953
FINAL SINGLE POINT ENERGY      -652.848626078436
FINAL SINGLE POINT ENERGY      -652.849627489702
FINAL SINGLE POINT ENERGY      -652.849968444469
FINAL SINGLE POINT ENERGY      -652.850121538259
FINAL SINGLE POINT ENERGY      -652.850270693833
FINAL SINGLE POINT ENERGY      -652.850438338398
FINAL SINGLE POINT ENERGY      -652.850781003930
FINAL SINGLE POINT ENERGY      -652.853560082193
FINAL SINGLE POINT ENERGY      -652.854365525355
FINAL SINGLE POINT ENERGY      -652.854673570291
FINAL SINGLE POINT ENERGY      -652.855825002879
FINAL SINGLE POINT ENERGY      -652.856347362856
FINAL SINGLE POINT ENERGY      -652.853971794825
FINAL SINGLE POINT ENERGY      -652.856644344265
FINAL SINGLE POINT ENERGY      -652.856674351272
FINAL SINGLE POINT ENERGY      -652.856717976342
                    ***********************HURRAY********************

CARTESIAN COORDINATES (ANGSTROEM)
---------------------------------
  C    -20.951062   26.453457   46.319386
  C    -20.339240   27.814155   45.982915
  C    -20.432088   28.553172   47.341775
  C    -20.190218   27.419613   48.363980
  O    -20.433537   26.153234   47.630065
  H    -20.681847   25.647607   45.638791
  H    -19.293136   27.682821   45.679762
  H    -20.877219   28.321562   45.178449
  H    -19.702663   29.363272   47.436179
  H    -21.436130   28.969321   47.462537
  H    -20.867649   27.462367   49.220553
  H    -19.156105   27.382179   48.720552
  C    -23.223196   25.955818   45.394697
  H    -24.204998   26.412689   45.542109
  H    -22.864798   26.216560   44.387663
  O    -22.397307   26.600368   46.403782
  C    -23.445091   24.433153   45.432153
  C    -22.270901   23.455036   45.249946
  C    -21.749038   23.293327   46.714232
  C    -23.058031   23.369152   47.537165
  O    -24.077312   23.982942   46.660204
  H    -24.184536   24.261887   44.636674
  H    -22.667043   22.499761   44.882498
  O    -21.310227   23.994447   44.301420
  H    -21.233308   22.336729   46.858977
  H    -21.067370   24.096126   46.990954
  H    -22.941068   23.988767   48.430425
  H    -23.435075   22.383112   47.824922
  H    -20.600807   23.344369   44.129234

 Multiplicity           Mult            ....    1
 Number of Electrons    NEL             ....  102
 Basis Dimension        Dim             ....  149

ORBITAL ENERGIES
----------------

  NO   OCC          E(Eh)            E(eV)
   0   2.0000     -19.154760      -521.2275
   1   2.0000     -19.135441      -520.7018
   2   2.0000     -19.129198      -520.5319
   3   2.0000     -19.128236      -520.5058
   4   2.0000     -10.262869      -279.2669
   5   2.0000     -10.244329      -278.7624
   6   2.0000     -10.228829      -278.3406
   7   2.0000     -10.219958      -278.0992
   8   2.0000     -10.219818      -278.0954
   9   2.0000     -10.216098      -277.9942
  10   2.0000     -10.178023      -276.9581
  11   2.0000     -10.175835      -276.8986
  12   2.0000     -10.175445      -276.8879
  13   2.0000      -1.043511       -28.3954
  14   2.0000      -1.032782       -28.1034
  15   2.0000      -1.012104       -27.5408
  16   2.0000      -0.983186       -26.7538
  17   2.0000      -0.778267       -21.1777
  18   2.0000      -0.770191       -20.9580
  19   2.0000      -0.759555       -20.6685
  20   2.0000      -0.725060       -19.7299
  21   2.0000      -0.670582       -18.2475
  22   2.0000      -0.600042       -16.3280
  23   2.0000      -0.591803       -16.1038
  24   2.0000      -0.589106       -16.0304
  25   2.0000      -0.558262       -15.1911
  26   2.0000      -0.524366       -14.2687
  27   2.0000      -0.508078       -13.8255
  28   2.0000      -0.488581       -13.2950
  29   2.0000      -0.482302       -13.1241
  30   2.0000      -0.460716       -12.5367
  31   2.0000      -0.451021       -12.2729
  32   2.0000      -0.436319       -11.8729
  33   2.0000      -0.428831       -11.6691
  34   2.0000      -0.422578       -11.4989
  35   2.0000      -0.408820       -11.1246
  36   2.0000      -0.396959       -10.8018
  37   2.0000      -0.389592       -10.6013
  38   2.0000      -0.368522       -10.0280
  39   2.0000      -0.360612        -9.8128
  40   2.0000      -0.353161        -9.6100
  41   2.0000      -0.348848        -9.4926
  42   2.0000      -0.342216        -9.3122
  43   2.0000      -0.327618        -8.9149
  44   2.0000      -0.312082        -8.4922
  45   2.0000      -0.294940        -8.0257
  46   2.0000      -0.291735        -7.9385
  47   2.0000      -0.275261        -7.4902
  48   2.0000      -0.259455        -7.0601
  49   2.0000      -0.248411        -6.7596
  50   2.0000      -0.224964        -6.1216
  51   0.0000       0.051229         1.3940
  52   0.0000       0.083192         2.2638
  53   0.0000       0.098113         2.6698
  54   0.0000       0.115166         3.1338
  55   0.0000       0.119212         3.2439

MULLIKEN ATOMIC CHARGES
-----------------------
   0 C :    0.258032
   1 C :   -0.248107
   2 C :   -0.299830
   3 C :    0.006629
   4 O :   -0.525003
   5 H :    0.179452
   6 H :    0.135700
   7 H :    0.144905
   8 H :    0.136612
   9 H :    0.163950
  10 H :    0.150706
  11 H :    0.136852
  12 C :   -0.002231
  13 H :    0.161062
  14 H :    0.131408
  15 O :   -0.516721
  16 C :    0.097838
  17 C :    0.074466
  18 C :   -0.342991
  19 C :   -0.000757
  20 O :   -0.520517
  21 H :    0.143474
  22 H :    0.140869
  23 O :   -0.609134
  24 H :    0.126114
  25 H :    0.217082
  26 H :    0.160579
  27 H :    0.133849
  28 H :    0.365712
Sum of atomic charges:    0.0000000

LOEWDIN ATOMIC CHARGES
----------------------
   0 C :    0.158860
   1 C :   -0.219541
   2 C :   -0.216927
   3 C :   -0.024657
   4 O :   -0.322286
   5 H :    0.113688
   6 H :    0.108402
   7 H :    0.117042
   8 H :    0.111622
   9 H :    0.120435
  10 H :    0.107398
  11 H :    0.099584
  12 C :   -0.036976
  13 H :    0.121773
  14 H :    0.098580
  15 O :   -0.332866
  16 C :    0.022126
  17 C :    0.030777
  18 C :   -0.253659
  19 C :   -0.022192
  20 O :   -0.321852
  21 H :    0.111778
  22 H :    0.099459
  23 O :   -0.416287
  24 H :    0.106765
  25 H :    0.142730
  26 H :    0.111983
  27 H :    0.097033
  28 H :    0.287207

  Mayer bond orders larger than 0.100000
B(  0-C ,  1-C ) :   0.9424 B(  0-C ,  4-O ) :   0.8835 B(  0-C ,  5-H ) :   0.8812
B(  0-C , 15-O ) :   0.8381 B(  1-C ,  2-C ) :   0.9544 B(  1-C ,  6-H ) :   0.9377
B(  1-C ,  7-H ) :   0.9406 B(  2-C ,  3-C ) :   0.9557 B(  2-C ,  8-H ) :   0.9457
B(  2-C ,  9-H ) :   0.9428 B(  3-C ,  4-O ) :   0.8301 B(  3-C , 10-H ) :   0.9354
B(  3-C , 11-H ) :   0.9408 B( 12-C , 13-H ) :   0.9347 B( 12-C , 14-H ) :   0.9099
B( 12-C , 15-O ) :   0.8861 B( 12-C , 16-C ) :   0.8940 B( 16-C , 17-C ) :   0.9220
B( 16-C , 20-O ) :   0.8788 B( 16-C , 21-H ) :   0.9193 B( 17-C , 18-C ) :   0.9224
B( 17-C , 22-H ) :   0.9252 B( 17-C , 23-O ) :   0.8601 B( 18-C , 19-C ) :   0.9454
B( 18-C , 24-H ) :   0.9442 B( 18-C , 25-H ) :   0.8997 B( 19-C , 20-O ) :   0.8399
B( 19-C , 26-H ) :   0.9295 B( 19-C , 27-H ) :   0.9380 B( 23-O , 28-H ) :   0.8003

FINAL SINGLE POINT ENERGY      -652.856720055694

DIPOLE MOMENT
-------------
                                X             Y             Z
Electronic contribution:     -2.82201      -2.75658      -1.14107
Nuclear contribution   :      3.84416       2.43916       0.58929
                        -----------------------------------------
Total Dipole Moment    :      1.02215      -0.31742      -0.55178
                        -----------------------------------------
Magnitude (a.u.)       :      1.20416
Magnitude (Debye)      :      3.06073

Rotational constants in cm-1:     0.045582     0.017336     0.016590
Rotational constants in MHz :  1366.528750   519.734314   497.341394

                             ****ORCA TERMINATED NORMALLY****
TOTAL RUN TIME: 0 days 1 hours 13 minutes 48 seconds 390 msec
