                         Program Version 4.2.0 -  RELEASE  -
|  1> # Test redundant internal optimization
|  2> #
|  3> ! RKS B3LYP  Opt TightSCF SmallPrint
|  4>
|  5> %basis
|  6>         Basis "6-31G"
|  7> end
|  8>
|  9> %geom
| 10> Constraints
| 11> { D 4  0  15  12  180.0   C } # D for Dihedral angle
| 12> { D 0  15  12  16  165.0   C } # D for Dihedral angle
| 13> { D 0  4  3  2   C } # D for Dihedral angle
| 14> { D 4  3  2  1   C } # D for Dihedral angle
| 15> { D 3  2  1  0   C } # D for Dihedral angle
| 16> { D 2  1  0  4   C } # D for Dihedral angle
| 17> { D 1  0  4  3   C } # D for Dihedral angle
| 18> { D 16  20  19  18   C } # D for Dihedral angle
| 19> { D 20  19  18  17   C } # D for Dihedral angle
| 20> { D 19  18  17  16   C } # D for Dihedral angle
| 21> { D 18  17  16  20   C } # D for Dihedral angle
| 22> { D 17  16  20  19   C } # D for Dihedral angle
| 23> { D 15  12  16  20   C } # D for Dihedral angle
| 24> end
| 25> end
| 26>
| 27>
| 28> #%pal
| 29> #nprocs 8
| 30> #end
| 31>
| 32> * xyz 0 1
| 33> C  -21.048   26.222   46.251
| 34> C  -20.361   27.558   45.944
| 35> C  -20.329   28.222   47.341
| 36> C  -20.110   27.022   48.296
| 37> O  -20.473   25.807   47.535
| 38> H  -20.833   25.428   45.533
| 39> H  -19.344   27.382   45.576
| 40> H  -20.898   28.157   45.201
| 41> H  -19.543   28.978   47.434
| 42> H  -21.289   28.710   47.548
| 43> H  -20.733   27.082   49.195
| 44> H  -19.064   26.913   48.597
| 45> C  -23.309   26.834   45.072
| 46> H  -23.107   27.896   44.887
| 47> H  -22.936   26.260   44.214
| 48> O  -22.586   26.394   46.375
| 49> C  -24.848   26.633   45.142
| 50> C  -25.478   27.534   46.211
| 51> C  -25.534   28.896   45.479
| 52> C  -25.825   28.495   44.011
| 53> O  -25.478   27.063   43.890
| 54> H  -25.065   25.570   45.261
| 55> H  -26.488   27.182   46.450
| 56> O  -24.654   27.589   47.526
| 57> H  -26.296   29.566   45.888
| 58> H  -24.565   29.404   45.557
| 59> H  -25.230   29.071   43.294
| 60> H  -26.883   28.595   43.753
| 61> H  -23.639   27.939   47.310
| 62> *
| 63>
| 64>                          ****END OF INPUT****
 Total Charge           Charge          ....    0
 Multiplicity           Mult            ....    1
 Number of Electrons    NEL             ....  102
FINAL SINGLE POINT ENERGY      -652.827591874633
FINAL SINGLE POINT ENERGY      -652.852158199781
FINAL SINGLE POINT ENERGY      -652.858898574309
FINAL SINGLE POINT ENERGY      -652.861573285606
FINAL SINGLE POINT ENERGY      -652.863304904818
FINAL SINGLE POINT ENERGY      -652.864469281722
FINAL SINGLE POINT ENERGY      -652.865153566207
FINAL SINGLE POINT ENERGY      -652.865403765079
FINAL SINGLE POINT ENERGY      -652.865442948943
FINAL SINGLE POINT ENERGY      -652.865450967023
                    ***********************HURRAY********************

CARTESIAN COORDINATES (ANGSTROEM)
---------------------------------
  C    -21.104344   26.244253   46.192186
  C    -20.321768   27.522984   45.904322
  C    -20.395158   28.258402   47.264997
  C    -20.340749   27.102874   48.283621
  O    -20.697388   25.877404   47.511719
  H    -20.907644   25.400980   45.523864
  H    -19.287572   27.254730   45.659480
  H    -20.722571   28.112293   45.075391
  H    -19.577342   28.972304   47.398676
  H    -21.342498   28.800711   47.346619
  H    -21.051543   27.212152   49.105970
  H    -19.339068   26.931757   48.686824
  C    -23.204463   26.874182   44.986811
  H    -22.966237   27.915586   44.738807
  H    -22.870070   26.233325   44.160973
  O    -22.550830   26.481044   46.236302
  C    -24.711208   26.689537   45.196276
  C    -25.325340   27.585575   46.286291
  C    -25.480012   28.938533   45.531859
  C    -25.828140   28.500155   44.094317
  O    -25.421308   27.067601   43.977586
  H    -24.916979   25.630003   45.370085
  H    -26.317045   27.192496   46.540160
  O    -24.566298   27.715363   47.505521
  H    -26.250980   29.569058   45.982676
  H    -24.529329   29.478828   45.584457
  H    -25.305125   29.076356   43.325001
  H    -26.902156   28.534335   43.891031
  H    -23.712834   27.229179   47.409178

 Multiplicity           Mult            ....    1
 Number of Electrons    NEL             ....  102
 Basis Dimension        Dim             ....  149

ORBITAL ENERGIES
----------------

  NO   OCC          E(Eh)            E(eV)
   0   2.0000     -19.164005      -521.4791
   1   2.0000     -19.153154      -521.1838
   2   2.0000     -19.141531      -520.8676
   3   2.0000     -19.111796      -520.0584
   4   2.0000     -10.294611      -280.1306
   5   2.0000     -10.241469      -278.6845
   6   2.0000     -10.235457      -278.5209
   7   2.0000     -10.234473      -278.4942
   8   2.0000     -10.230337      -278.3816
   9   2.0000     -10.227500      -278.3044
  10   2.0000     -10.198878      -277.5256
  11   2.0000     -10.196163      -277.4517
  12   2.0000     -10.179905      -277.0093
  13   2.0000      -1.068826       -29.0842
  14   2.0000      -1.027129       -27.9496
  15   2.0000      -1.009669       -27.4745
  16   2.0000      -0.990988       -26.9661
  17   2.0000      -0.797663       -21.7055
  18   2.0000      -0.775562       -21.1041
  19   2.0000      -0.768812       -20.9204
  20   2.0000      -0.738728       -20.1018
  21   2.0000      -0.681950       -18.5568
  22   2.0000      -0.611475       -16.6391
  23   2.0000      -0.601454       -16.3664
  24   2.0000      -0.595558       -16.2060
  25   2.0000      -0.580148       -15.7866
  26   2.0000      -0.530580       -14.4378
  27   2.0000      -0.521810       -14.1992
  28   2.0000      -0.505234       -13.7481
  29   2.0000      -0.490363       -13.3434
  30   2.0000      -0.476971       -12.9790
  31   2.0000      -0.460658       -12.5351
  32   2.0000      -0.450267       -12.2524
  33   2.0000      -0.437069       -11.8933
  34   2.0000      -0.429067       -11.6755
  35   2.0000      -0.415046       -11.2940
  36   2.0000      -0.412941       -11.2367
  37   2.0000      -0.388491       -10.5714
  38   2.0000      -0.384909       -10.4739
  39   2.0000      -0.369696       -10.0599
  40   2.0000      -0.368245       -10.0204
  41   2.0000      -0.365888        -9.9563
  42   2.0000      -0.350745        -9.5443
  43   2.0000      -0.342289        -9.3142
  44   2.0000      -0.324001        -8.8165
  45   2.0000      -0.318318        -8.6619
  46   2.0000      -0.287963        -7.8359
  47   2.0000      -0.273485        -7.4419
  48   2.0000      -0.270678        -7.3655
  49   2.0000      -0.248974        -6.7749
  50   2.0000      -0.243362        -6.6222
  51   0.0000       0.055400         1.5075
  52   0.0000       0.070982         1.9315
  53   0.0000       0.089384         2.4323
  54   0.0000       0.095815         2.6073
  55   0.0000       0.106039         2.8855

MULLIKEN ATOMIC CHARGES
-----------------------
   0 C :    0.318777
   1 C :   -0.283542
   2 C :   -0.304164
   3 C :   -0.011030
   4 O :   -0.500471
   5 H :    0.152517
   6 H :    0.154471
   7 H :    0.147509
   8 H :    0.148880
   9 H :    0.165400
  10 H :    0.164017
  11 H :    0.149546
  12 C :   -0.012644
  13 H :    0.136182
  14 H :    0.152447
  15 O :   -0.556663
  16 C :    0.049819
  17 C :    0.122414
  18 C :   -0.300481
  19 C :   -0.020725
  20 O :   -0.522563
  21 H :    0.164311
  22 H :    0.144272
  23 O :   -0.648010
  24 H :    0.153487
  25 H :    0.142562
  26 H :    0.140677
  27 H :    0.150016
  28 H :    0.402991
Sum of atomic charges:    0.0000000

LOEWDIN ATOMIC CHARGES
----------------------
   0 C :    0.185221
   1 C :   -0.231255
   2 C :   -0.218076
   3 C :   -0.026158
   4 O :   -0.299465
   5 H :    0.104356
   6 H :    0.119644
   7 H :    0.115798
   8 H :    0.118256
   9 H :    0.119356
  10 H :    0.113720
  11 H :    0.106956
  12 C :   -0.045212
  13 H :    0.094369
  14 H :    0.108055
  15 O :   -0.344222
  16 C :    0.019246
  17 C :    0.043070
  18 C :   -0.235042
  19 C :   -0.032804
  20 O :   -0.324345
  21 H :    0.117822
  22 H :    0.103404
  23 O :   -0.440581
  24 H :    0.121802
  25 H :    0.109653
  26 H :    0.101127
  27 H :    0.106533
  28 H :    0.288774

  Mayer bond orders larger than 0.100000
B(  0-C ,  1-C ) :   0.9313 B(  0-C ,  4-O ) :   0.9530 B(  0-C ,  5-H ) :   0.9219
B(  0-C , 15-O ) :   0.7841 B(  1-C ,  2-C ) :   0.9482 B(  1-C ,  6-H ) :   0.9332
B(  1-C ,  7-H ) :   0.9312 B(  2-C ,  3-C ) :   0.9538 B(  2-C ,  8-H ) :   0.9445
B(  2-C ,  9-H ) :   0.9413 B(  3-C ,  4-O ) :   0.8258 B(  3-C , 10-H ) :   0.9331
B(  3-C , 11-H ) :   0.9394 B( 12-C , 13-H ) :   0.9151 B( 12-C , 14-H ) :   0.9218
B( 12-C , 15-O ) :   0.7918 B( 12-C , 16-C ) :   0.9036 B( 16-C , 17-C ) :   0.9168
B( 16-C , 20-O ) :   0.8565 B( 16-C , 21-H ) :   0.9283 B( 17-C , 18-C ) :   0.9037
B( 17-C , 22-H ) :   0.9278 B( 17-C , 23-O ) :   0.9339 B( 18-C , 19-C ) :   0.9398
B( 18-C , 24-H ) :   0.9445 B( 18-C , 25-H ) :   0.9429 B( 19-C , 20-O ) :   0.8329
B( 19-C , 26-H ) :   0.9343 B( 19-C , 27-H ) :   0.9385 B( 23-O , 28-H ) :   0.7138

FINAL SINGLE POINT ENERGY      -652.865451721742

DIPOLE MOMENT
-------------
                                X             Y             Z
Electronic contribution:     -1.94905      -5.50774       0.78933
Nuclear contribution   :      3.00282       6.45020      -1.48162
                        -----------------------------------------
Total Dipole Moment    :      1.05377       0.94246      -0.69229
                        -----------------------------------------
Magnitude (a.u.)       :      1.57414
Magnitude (Debye)      :      4.00116

Rotational constants in cm-1:     0.055170     0.014135     0.013406
Rotational constants in MHz :  1653.955066   423.755305   401.895501

                             ****ORCA TERMINATED NORMALLY****
TOTAL RUN TIME: 0 days 1 hours 58 minutes 59 seconds 255 msec
