                         Program Version 4.2.0 -  RELEASE  -
|  1> # Test redundant internal optimization
|  2> #
|  3> ! RKS B3LYP  Opt TightSCF SmallPrint
|  4>
|  5> %basis
|  6>         Basis "6-31G"
|  7> end
|  8>
|  9> %geom
| 10> Constraints
| 11> { D 4  0  15  12  345.0   C } # D for Dihedral angle
| 12> { D 0  15  12  16  345.0   C } # D for Dihedral angle
| 13> { D 0  4  3  2   C } # D for Dihedral angle
| 14> { D 4  3  2  1   C } # D for Dihedral angle
| 15> { D 3  2  1  0   C } # D for Dihedral angle
| 16> { D 2  1  0  4   C } # D for Dihedral angle
| 17> { D 1  0  4  3   C } # D for Dihedral angle
| 18> { D 16  20  19  18   C } # D for Dihedral angle
| 19> { D 20  19  18  17   C } # D for Dihedral angle
| 20> { D 19  18  17  16   C } # D for Dihedral angle
| 21> { D 18  17  16  20   C } # D for Dihedral angle
| 22> { D 17  16  20  19   C } # D for Dihedral angle
| 23> { D 15  12  16  20   C } # D for Dihedral angle
| 24> end
| 25> end
| 26>
| 27>
| 28> #%pal
| 29> #nprocs 8
| 30> #end
| 31>
| 32> * xyz 0 1
| 33> C  -21.048   26.222   46.251
| 34> C  -20.361   27.558   45.944
| 35> C  -20.329   28.222   47.341
| 36> C  -20.110   27.022   48.296
| 37> O  -20.473   25.807   47.535
| 38> H  -20.833   25.428   45.533
| 39> H  -19.344   27.382   45.576
| 40> H  -20.898   28.157   45.201
| 41> H  -19.543   28.978   47.434
| 42> H  -21.289   28.710   47.548
| 43> H  -20.733   27.082   49.195
| 44> H  -19.064   26.913   48.597
| 45> C  -23.221   25.764   47.645
| 46> H  -23.483   26.561   48.352
| 47> H  -24.138   25.220   47.386
| 48> O  -22.586   26.394   46.375
| 49> C  -22.267   24.769   48.363
| 50> C  -22.965   24.081   49.541
| 51> C  -23.803   22.999   48.821
| 52> C  -22.897   22.584   47.635
| 53> O  -21.906   23.667   47.464
| 54> H  -21.341   25.286   48.624
| 55> H  -22.222   23.620   50.202
| 56> O  -23.834   25.053   50.387
| 57> H  -24.054   22.154   49.471
| 58> H  -24.743   23.431   48.457
| 59> H  -23.458   22.460   46.702
| 60> H  -22.339   21.665   47.838
| 61> H  -24.586   25.527   49.747
| 62> *
| 63>
| 64>                          ****END OF INPUT****
 Total Charge           Charge          ....    0
 Multiplicity           Mult            ....    1
 Number of Electrons    NEL             ....  102
FINAL SINGLE POINT ENERGY      -652.776830471438
FINAL SINGLE POINT ENERGY      -652.820000328758
FINAL SINGLE POINT ENERGY      -652.841447308264
FINAL SINGLE POINT ENERGY      -652.845409944851
FINAL SINGLE POINT ENERGY      -652.846054610368
FINAL SINGLE POINT ENERGY      -652.846221004463
FINAL SINGLE POINT ENERGY      -652.846241631941
FINAL SINGLE POINT ENERGY      -652.846247497423
FINAL SINGLE POINT ENERGY      -652.846248095615
                    ***********************HURRAY********************

CARTESIAN COORDINATES (ANGSTROEM)
---------------------------------
  C    -20.927951   26.309736   46.253102
  C    -20.507778   27.742656   45.923051
  C    -20.272553   28.335751   47.332212
  C    -19.700113   27.141607   48.126049
  O    -20.059838   25.925603   47.342011
  H    -20.742670   25.575257   45.466293
  H    -19.576593   27.719186   45.344750
  H    -21.272690   28.272595   45.352398
  H    -19.590862   29.191754   47.322036
  H    -21.225935   28.663971   47.757994
  H    -20.119181   27.051417   49.133361
  H    -18.608353   27.154441   48.193309
  C    -23.054435   25.685007   47.639198
  H    -23.388910   26.494507   48.303851
  H    -23.942498   25.229935   47.183786
  O    -22.357492   26.304870   46.520954
  C    -22.329830   24.651991   48.507317
  C    -23.248548   24.044344   49.583988
  C    -24.019894   22.955835   48.772835
  C    -22.948643   22.458278   47.776387
  O    -21.888270   23.494723   47.730510
  H    -21.428730   25.079771   48.937403
  H    -22.631442   23.576423   50.354044
  O    -24.084294   24.982666   50.304821
  H    -24.407239   22.159577   49.413905
  H    -24.871671   23.415655   48.254641
  H    -23.344536   22.305646   46.767571
  H    -22.475085   21.530667   48.111546
  H    -24.841968   25.262129   49.751679

 Multiplicity           Mult            ....    1
 Number of Electrons    NEL             ....  102
 Basis Dimension        Dim             ....  149

ORBITAL ENERGIES
----------------

  NO   OCC          E(Eh)            E(eV)
   0   2.0000     -19.148804      -521.0654
   1   2.0000     -19.141845      -520.8761
   2   2.0000     -19.131805      -520.6029
   3   2.0000     -19.128660      -520.5173
   4   2.0000     -10.273250      -279.5493
   5   2.0000     -10.242556      -278.7141
   6   2.0000     -10.228501      -278.3317
   7   2.0000     -10.226478      -278.2766
   8   2.0000     -10.226249      -278.2704
   9   2.0000     -10.222987      -278.1816
  10   2.0000     -10.192973      -277.3649
  11   2.0000     -10.185179      -277.1528
  12   2.0000     -10.179585      -277.0006
  13   2.0000      -1.044617       -28.4255
  14   2.0000      -1.030742       -28.0479
  15   2.0000      -1.011039       -27.5118
  16   2.0000      -0.983871       -26.7725
  17   2.0000      -0.786398       -21.3990
  18   2.0000      -0.779151       -21.2018
  19   2.0000      -0.763053       -20.7637
  20   2.0000      -0.730556       -19.8794
  21   2.0000      -0.676995       -18.4220
  22   2.0000      -0.608890       -16.5687
  23   2.0000      -0.600200       -16.3323
  24   2.0000      -0.595569       -16.2063
  25   2.0000      -0.561806       -15.2875
  26   2.0000      -0.519957       -14.1487
  27   2.0000      -0.508265       -13.8306
  28   2.0000      -0.498222       -13.5573
  29   2.0000      -0.483162       -13.1475
  30   2.0000      -0.462836       -12.5944
  31   2.0000      -0.454899       -12.3784
  32   2.0000      -0.442492       -12.0408
  33   2.0000      -0.426011       -11.5924
  34   2.0000      -0.425841       -11.5877
  35   2.0000      -0.409822       -11.1518
  36   2.0000      -0.408258       -11.1093
  37   2.0000      -0.395856       -10.7718
  38   2.0000      -0.378615       -10.3026
  39   2.0000      -0.366650        -9.9771
  40   2.0000      -0.356262        -9.6944
  41   2.0000      -0.355137        -9.6638
  42   2.0000      -0.342310        -9.3147
  43   2.0000      -0.331291        -9.0149
  44   2.0000      -0.319450        -8.6927
  45   2.0000      -0.311312        -8.4712
  46   2.0000      -0.295675        -8.0457
  47   2.0000      -0.269729        -7.3397
  48   2.0000      -0.256850        -6.9892
  49   2.0000      -0.241684        -6.5766
  50   2.0000      -0.231073        -6.2878
  51   0.0000       0.052301         1.4232
  52   0.0000       0.077774         2.1163
  53   0.0000       0.086009         2.3404
  54   0.0000       0.093725         2.5504
  55   0.0000       0.109223         2.9721

MULLIKEN ATOMIC CHARGES
-----------------------
   0 C :    0.322327
   1 C :   -0.258280
   2 C :   -0.305642
   3 C :   -0.023270
   4 O :   -0.501760
   5 H :    0.159290
   6 H :    0.143145
   7 H :    0.158295
   8 H :    0.143831
   9 H :    0.155059
  10 H :    0.140013
  11 H :    0.153109
  12 C :    0.017321
  13 H :    0.128102
  14 H :    0.131743
  15 O :   -0.561408
  16 C :    0.076230
  17 C :    0.082702
  18 C :   -0.323593
  19 C :   -0.005569
  20 O :   -0.508843
  21 H :    0.179172
  22 H :    0.166696
  23 O :   -0.601386
  24 H :    0.155676
  25 H :    0.130917
  26 H :    0.142499
  27 H :    0.146980
  28 H :    0.356642
Sum of atomic charges:   -0.0000000

LOEWDIN ATOMIC CHARGES
----------------------
   0 C :    0.192233
   1 C :   -0.218599
   2 C :   -0.218763
   3 C :   -0.036215
   4 O :   -0.310576
   5 H :    0.105705
   6 H :    0.112690
   7 H :    0.124853
   8 H :    0.115447
   9 H :    0.115004
  10 H :    0.099436
  11 H :    0.107343
  12 C :   -0.036734
  13 H :    0.096370
  14 H :    0.099043
  15 O :   -0.347573
  16 C :    0.006369
  17 C :    0.035483
  18 C :   -0.241617
  19 C :   -0.029934
  20 O :   -0.315203
  21 H :    0.125701
  22 H :    0.118782
  23 O :   -0.408550
  24 H :    0.121319
  25 H :    0.102538
  26 H :    0.102238
  27 H :    0.104967
  28 H :    0.278241

  Mayer bond orders larger than 0.100000
B(  0-C ,  1-C ) :   0.9328 B(  0-C ,  4-O ) :   0.9031 B(  0-C ,  5-H ) :   0.9277
B(  0-C , 15-O ) :   0.8369 B(  1-C ,  2-C ) :   0.9552 B(  1-C ,  6-H ) :   0.9366
B(  1-C ,  7-H ) :   0.9368 B(  2-C ,  3-C ) :   0.9544 B(  2-C ,  8-H ) :   0.9449
B(  2-C ,  9-H ) :   0.9457 B(  3-C ,  4-O ) :   0.8372 B(  3-C , 10-H ) :   0.9299
B(  3-C , 11-H ) :   0.9395 B( 12-C , 13-H ) :   0.9076 B( 12-C , 14-H ) :   0.9328
B( 12-C , 15-O ) :   0.8462 B( 12-C , 16-C ) :   0.9005 B( 16-C , 17-C ) :   0.8639
B( 16-C , 20-O ) :   0.8499 B( 16-C , 21-H ) :   0.9146 B( 17-C , 18-C ) :   0.9204
B( 17-C , 22-H ) :   0.9340 B( 17-C , 23-O ) :   0.8968 B( 18-C , 19-C ) :   0.9381
B( 18-C , 24-H ) :   0.9428 B( 18-C , 25-H ) :   0.9407 B( 19-C , 20-O ) :   0.8528
B( 19-C , 26-H ) :   0.9318 B( 19-C , 27-H ) :   0.9380 B( 23-O , 28-H ) :   0.7979

FINAL SINGLE POINT ENERGY      -652.846248075388

DIPOLE MOMENT
-------------
                                X             Y             Z
Electronic contribution:      0.33101      -2.11399      -0.12258
Nuclear contribution   :     -0.86022       2.38974       0.11836
                        -----------------------------------------
Total Dipole Moment    :     -0.52921       0.27575      -0.00422
                        -----------------------------------------
Magnitude (a.u.)       :      0.59676
Magnitude (Debye)      :      1.51685

Rotational constants in cm-1:     0.051793     0.015234     0.014178
Rotational constants in MHz :  1552.721964   456.705386   425.052902

                             ****ORCA TERMINATED NORMALLY****
TOTAL RUN TIME: 0 days 0 hours 29 minutes 4 seconds 780 msec
