                         Program Version 4.2.0 -  RELEASE  -
|  1> # Test redundant internal optimization
|  2> #
|  3> ! RKS B3LYP  Opt TightSCF SmallPrint
|  4>
|  5> %basis
|  6>         Basis "6-31G"
|  7> end
|  8>
|  9> %geom
| 10> Constraints
| 11> { D 4  0  15  12  210.0   C } # D for Dihedral angle
| 12> { D 0  15  12  16  270.0   C } # D for Dihedral angle
| 13> { D 0  4  3  2   C } # D for Dihedral angle
| 14> { D 4  3  2  1   C } # D for Dihedral angle
| 15> { D 3  2  1  0   C } # D for Dihedral angle
| 16> { D 2  1  0  4   C } # D for Dihedral angle
| 17> { D 1  0  4  3   C } # D for Dihedral angle
| 18> { D 16  20  19  18   C } # D for Dihedral angle
| 19> { D 20  19  18  17   C } # D for Dihedral angle
| 20> { D 19  18  17  16   C } # D for Dihedral angle
| 21> { D 18  17  16  20   C } # D for Dihedral angle
| 22> { D 17  16  20  19   C } # D for Dihedral angle
| 23> { D 15  12  16  20   C } # D for Dihedral angle
| 24> end
| 25> end
| 26>
| 27>
| 28> #%pal
| 29> #nprocs 8
| 30> #end
| 31>
| 32> * xyz 0 1
| 33> C  -21.048   26.222   46.251
| 34> C  -20.361   27.558   45.944
| 35> C  -20.329   28.222   47.341
| 36> C  -20.110   27.022   48.296
| 37> O  -20.473   25.807   47.535
| 38> H  -20.833   25.428   45.533
| 39> H  -19.344   27.382   45.576
| 40> H  -20.898   28.157   45.201
| 41> H  -19.543   28.978   47.434
| 42> H  -21.289   28.710   47.548
| 43> H  -20.733   27.082   49.195
| 44> H  -19.064   26.913   48.597
| 45> C  -23.389   26.110   45.076
| 46> H  -22.862   25.353   44.482
| 47> H  -24.387   25.722   45.318
| 48> O  -22.586   26.394   46.375
| 49> C  -23.576   27.378   44.197
| 50> C  -24.469   27.088   42.985
| 51> C  -25.880   27.130   43.618
| 52> C  -25.748   28.234   44.696
| 53> O  -24.301   28.414   44.939
| 54> H  -22.595   27.788   43.948
| 55> O  -24.309   28.211   41.924
| 56> H  -24.246   26.127   42.507
| 57> H  -26.666   27.351   42.888
| 58> H  -26.114   26.164   44.080
| 59> H  -26.239   27.961   45.638
| 60> H  -26.141   29.197   44.358
| 61> H  -24.528   29.183   42.381
| 62> *
| 63>
| 64>                          ****END OF INPUT****
 Total Charge           Charge          ....    0
 Multiplicity           Mult            ....    1
 Number of Electrons    NEL             ....  102
FINAL SINGLE POINT ENERGY      -652.830464312436
FINAL SINGLE POINT ENERGY      -652.853129974832
FINAL SINGLE POINT ENERGY      -652.857192005735
FINAL SINGLE POINT ENERGY      -652.857893456572
FINAL SINGLE POINT ENERGY      -652.857983408761
FINAL SINGLE POINT ENERGY      -652.857992073397
                    ***********************HURRAY********************

CARTESIAN COORDINATES (ANGSTROEM)
---------------------------------
  C    -21.051730   26.236007   46.150302
  C    -20.378417   27.584578   45.900651
  C    -20.423709   28.232565   47.307133
  C    -20.228574   27.023465   48.245633
  O    -20.540483   25.823935   47.425923
  H    -20.815181   25.448947   45.424599
  H    -19.341977   27.415565   45.582693
  H    -20.880806   28.187733   45.142658
  H    -19.654095   28.997983   47.442931
  H    -21.405425   28.689156   47.463507
  H    -20.896866   27.035656   49.109841
  H    -19.194840   26.909551   48.585538
  C    -23.303757   26.118422   45.099263
  H    -22.833378   25.339871   44.475110
  H    -24.249282   25.724495   45.483742
  O    -22.496914   26.368294   46.276254
  C    -23.558500   27.362067   44.241060
  C    -24.466148   27.090783   43.031801
  C    -25.877135   27.158075   43.674184
  C    -25.715702   28.258253   44.753199
  O    -24.259951   28.408872   44.987044
  H    -22.609326   27.796582   43.914848
  O    -24.287133   28.111134   42.010977
  H    -24.266209   26.144484   42.526767
  H    -26.631531   27.402975   42.922593
  H    -26.138130   26.193186   44.122006
  H    -26.202470   28.000055   45.698259
  H    -26.092327   29.230998   44.421452
  H    -24.261006   28.992315   42.441032

 Multiplicity           Mult            ....    1
 Number of Electrons    NEL             ....  102
 Basis Dimension        Dim             ....  149

ORBITAL ENERGIES
----------------

  NO   OCC          E(Eh)            E(eV)
   0   2.0000     -19.144718      -520.9543
   1   2.0000     -19.143922      -520.9326
   2   2.0000     -19.138263      -520.7786
   3   2.0000     -19.136546      -520.7319
   4   2.0000     -10.278017      -279.6791
   5   2.0000     -10.247642      -278.8525
   6   2.0000     -10.237800      -278.5847
   7   2.0000     -10.235618      -278.5253
   8   2.0000     -10.233767      -278.4749
   9   2.0000     -10.220488      -278.1136
  10   2.0000     -10.193755      -277.3862
  11   2.0000     -10.182657      -277.0842
  12   2.0000     -10.180655      -277.0297
  13   2.0000      -1.051408       -28.6103
  14   2.0000      -1.040152       -28.3040
  15   2.0000      -1.010589       -27.4995
  16   2.0000      -0.991756       -26.9871
  17   2.0000      -0.788980       -21.4692
  18   2.0000      -0.781253       -21.2590
  19   2.0000      -0.769455       -20.9379
  20   2.0000      -0.732110       -19.9217
  21   2.0000      -0.676254       -18.4018
  22   2.0000      -0.609150       -16.5758
  23   2.0000      -0.601207       -16.3597
  24   2.0000      -0.595022       -16.1914
  25   2.0000      -0.580281       -15.7903
  26   2.0000      -0.525999       -14.3132
  27   2.0000      -0.514554       -14.0017
  28   2.0000      -0.495964       -13.4959
  29   2.0000      -0.490435       -13.3454
  30   2.0000      -0.473227       -12.8771
  31   2.0000      -0.455975       -12.4077
  32   2.0000      -0.452503       -12.3132
  33   2.0000      -0.448804       -12.2126
  34   2.0000      -0.426046       -11.5933
  35   2.0000      -0.413682       -11.2569
  36   2.0000      -0.400413       -10.8958
  37   2.0000      -0.396394       -10.7864
  38   2.0000      -0.376751       -10.2519
  39   2.0000      -0.369278       -10.0486
  40   2.0000      -0.365319        -9.9408
  41   2.0000      -0.352711        -9.5977
  42   2.0000      -0.348808        -9.4915
  43   2.0000      -0.335607        -9.1323
  44   2.0000      -0.313755        -8.5377
  45   2.0000      -0.309156        -8.4125
  46   2.0000      -0.301371        -8.2007
  47   2.0000      -0.275683        -7.5017
  48   2.0000      -0.266524        -7.2525
  49   2.0000      -0.254776        -6.9328
  50   2.0000      -0.237269        -6.4564
  51   0.0000       0.062260         1.6942
  52   0.0000       0.082320         2.2400
  53   0.0000       0.085444         2.3250
  54   0.0000       0.086452         2.3525
  55   0.0000       0.102386         2.7861

MULLIKEN ATOMIC CHARGES
-----------------------
   0 C :    0.288317
   1 C :   -0.264641
   2 C :   -0.302286
   3 C :   -0.000509
   4 O :   -0.502150
   5 H :    0.134731
   6 H :    0.141287
   7 H :    0.150547
   8 H :    0.139655
   9 H :    0.174166
  10 H :    0.154244
  11 H :    0.139218
  12 C :   -0.010329
  13 H :    0.120253
  14 H :    0.152859
  15 O :   -0.495003
  16 C :    0.059301
  17 C :    0.077604
  18 C :   -0.296272
  19 C :   -0.026723
  20 O :   -0.513614
  21 H :    0.157189
  22 O :   -0.602181
  23 H :    0.151590
  24 H :    0.164946
  25 H :    0.144454
  26 H :    0.153708
  27 H :    0.144484
  28 H :    0.365156
Sum of atomic charges:   -0.0000000

LOEWDIN ATOMIC CHARGES
----------------------
   0 C :    0.178557
   1 C :   -0.228113
   2 C :   -0.216890
   3 C :   -0.025094
   4 O :   -0.306313
   5 H :    0.094083
   6 H :    0.111910
   7 H :    0.115816
   8 H :    0.113481
   9 H :    0.125092
  10 H :    0.109408
  11 H :    0.100983
  12 C :   -0.040466
  13 H :    0.093074
  14 H :    0.112744
  15 O :   -0.320119
  16 C :    0.002976
  17 C :    0.035056
  18 C :   -0.240358
  19 C :   -0.037026
  20 O :   -0.324373
  21 H :    0.110492
  22 O :   -0.414674
  23 H :    0.115157
  24 H :    0.127698
  25 H :    0.113456
  26 H :    0.107915
  27 H :    0.102008
  28 H :    0.283521

  Mayer bond orders larger than 0.100000
B(  0-C ,  1-C ) :   0.9326 B(  0-C ,  4-O ) :   0.9382 B(  0-C ,  5-H ) :   0.9164
B(  0-C , 15-O ) :   0.8387 B(  1-C ,  2-C ) :   0.9544 B(  1-C ,  6-H ) :   0.9338
B(  1-C ,  7-H ) :   0.9288 B(  2-C ,  3-C ) :   0.9553 B(  2-C ,  8-H ) :   0.9450
B(  2-C ,  9-H ) :   0.9402 B(  3-C ,  4-O ) :   0.8341 B(  3-C , 10-H ) :   0.9347
B(  3-C , 11-H ) :   0.9398 B( 12-C , 13-H ) :   0.9102 B( 12-C , 14-H ) :   0.9368
B( 12-C , 15-O ) :   0.8735 B( 12-C , 16-C ) :   0.8740 B( 16-C , 17-C ) :   0.8948
B( 16-C , 20-O ) :   0.8677 B( 16-C , 21-H ) :   0.9186 B( 17-C , 18-C ) :   0.9125
B( 17-C , 22-O ) :   0.8926 B( 17-C , 23-H ) :   0.9332 B( 18-C , 19-C ) :   0.9394
B( 18-C , 24-H ) :   0.9370 B( 18-C , 25-H ) :   0.9340 B( 19-C , 20-O ) :   0.8459
B( 19-C , 26-H ) :   0.9336 B( 19-C , 27-H ) :   0.9379 B( 22-O , 28-H ) :   0.7941

FINAL SINGLE POINT ENERGY      -652.857994250741

DIPOLE MOMENT
-------------
                                X             Y             Z
Electronic contribution:     -0.00684      -1.49603      -0.25319
Nuclear contribution   :     -0.27893       1.83742      -0.07981
                        -----------------------------------------
Total Dipole Moment    :     -0.28577       0.34139      -0.33300
                        -----------------------------------------
Magnitude (a.u.)       :      0.55597
Magnitude (Debye)      :      1.41315

Rotational constants in cm-1:     0.061138     0.012147     0.012104
Rotational constants in MHz :  1832.859310   364.145855   362.860744

                             ****ORCA TERMINATED NORMALLY****
TOTAL RUN TIME: 0 days 0 hours 23 minutes 17 seconds 979 msec
