                         Program Version 4.2.0 -  RELEASE  -
|  1> # Test redundant internal optimization
|  2> #
|  3> ! RKS B3LYP  Opt TightSCF SmallPrint
|  4>
|  5> %basis
|  6>         Basis "6-31G"
|  7> end
|  8>
|  9> %geom
| 10> Constraints
| 11> { D 4  0  15  12  75.0   C } # D for Dihedral angle
| 12> { D 0  15  12  16  240.0   C } # D for Dihedral angle
| 13> { D 0  4  3  2   C } # D for Dihedral angle
| 14> { D 4  3  2  1   C } # D for Dihedral angle
| 15> { D 3  2  1  0   C } # D for Dihedral angle
| 16> { D 2  1  0  4   C } # D for Dihedral angle
| 17> { D 1  0  4  3   C } # D for Dihedral angle
| 18> { D 16  20  19  18   C } # D for Dihedral angle
| 19> { D 20  19  18  17   C } # D for Dihedral angle
| 20> { D 19  18  17  16   C } # D for Dihedral angle
| 21> { D 18  17  16  20   C } # D for Dihedral angle
| 22> { D 17  16  20  19   C } # D for Dihedral angle
| 23> { D 15  12  16  20   C } # D for Dihedral angle
| 24> end
| 25> end
| 26>
| 27>
| 28> #%pal
| 29> #nprocs 8
| 30> #end
| 31>
| 32> * xyz 0 1
| 33> C  -21.048   26.222   46.251
| 34> C  -20.361   27.558   45.944
| 35> C  -20.329   28.222   47.341
| 36> C  -20.110   27.022   48.296
| 37> O  -20.473   25.807   47.535
| 38> H  -20.833   25.428   45.533
| 39> H  -19.344   27.382   45.576
| 40> H  -20.898   28.157   45.201
| 41> H  -19.543   28.978   47.434
| 42> H  -21.289   28.710   47.548
| 43> H  -20.733   27.082   49.195
| 44> H  -19.064   26.913   48.597
| 45> C  -23.049   27.675   47.122
| 46> H  -22.169   28.252   47.431
| 47> H  -23.658   28.305   46.462
| 48> O  -22.586   26.394   46.375
| 49> C  -23.895   27.360   48.387
| 50> C  -24.431   28.642   49.032
| 51> C  -25.636   28.972   48.119
| 52> C  -26.184   27.574   47.741
| 53> O  -25.101   26.608   48.023
| 54> H  -23.312   26.725   49.058
| 55> O  -24.904   28.352   50.482
| 56> H  -23.690   29.449   49.065
| 57> H  -26.387   29.594   48.617
| 58> H  -25.296   29.509   47.225
| 59> H  -26.461   27.504   46.683
| 60> H  -27.043   27.282   48.353
| 61> H  -25.648   27.547   50.473
| 62> *
| 63>
| 64>                          ****END OF INPUT****
 Total Charge           Charge          ....    0
 Multiplicity           Mult            ....    1
 Number of Electrons    NEL             ....  102
FINAL SINGLE POINT ENERGY      -652.774941377188
FINAL SINGLE POINT ENERGY      -652.823684832065
FINAL SINGLE POINT ENERGY      -652.844819876734
FINAL SINGLE POINT ENERGY      -652.849528175033
FINAL SINGLE POINT ENERGY      -652.850281206753
FINAL SINGLE POINT ENERGY      -652.850466214176
FINAL SINGLE POINT ENERGY      -652.850509113784
FINAL SINGLE POINT ENERGY      -652.850527878417
FINAL SINGLE POINT ENERGY      -652.850530701381
                    ***********************HURRAY********************

CARTESIAN COORDINATES (ANGSTROEM)
---------------------------------
  C    -21.199135   26.381367   46.441616
  C    -20.228307   27.453708   45.918524
  C    -19.811957   28.186950   47.231117
  C    -19.789553   27.029132   48.263715
  O    -20.575797   25.924107   47.667069
  H    -21.229502   25.502249   45.795794
  H    -19.366084   26.950592   45.470231
  H    -20.681478   28.111720   45.172271
  H    -18.829919   28.662982   47.142526
  H    -20.525198   28.969079   47.500628
  H    -20.228038   27.302646   49.228517
  H    -18.778436   26.646846   48.430669
  C    -23.137093   27.873040   47.187886
  H    -22.354647   28.534373   47.570168
  H    -23.706883   28.417038   46.424915
  O    -22.601213   26.681689   46.547027
  C    -24.041855   27.453230   48.349122
  C    -24.708146   28.628925   49.077220
  C    -25.928905   28.917327   48.162160
  C    -26.334657   27.505882   47.669367
  O    -25.165157   26.626223   47.904139
  H    -23.456506   26.832525   49.034054
  O    -25.120818   28.242576   50.416812
  H    -24.058689   29.495278   49.214181
  H    -26.720193   29.418662   48.725170
  H    -25.635164   29.564768   47.327945
  H    -26.588204   27.484217   46.605391
  H    -27.172115   27.088658   48.236758
  H    -25.501351   27.339209   50.384008

 Multiplicity           Mult            ....    1
 Number of Electrons    NEL             ....  102
 Basis Dimension        Dim             ....  149

ORBITAL ENERGIES
----------------

  NO   OCC          E(Eh)            E(eV)
   0   2.0000     -19.141441      -520.8651
   1   2.0000     -19.140250      -520.8327
   2   2.0000     -19.138404      -520.7825
   3   2.0000     -19.138370      -520.7815
   4   2.0000     -10.277759      -279.6721
   5   2.0000     -10.243274      -278.7337
   6   2.0000     -10.235092      -278.5110
   7   2.0000     -10.231830      -278.4222
   8   2.0000     -10.230103      -278.3752
   9   2.0000     -10.228472      -278.3309
  10   2.0000     -10.196643      -277.4648
  11   2.0000     -10.193619      -277.3825
  12   2.0000     -10.190006      -277.2842
  13   2.0000      -1.050254       -28.5789
  14   2.0000      -1.034871       -28.1603
  15   2.0000      -1.005638       -27.3648
  16   2.0000      -0.994222       -27.0541
  17   2.0000      -0.790292       -21.5049
  18   2.0000      -0.785830       -21.3835
  19   2.0000      -0.770390       -20.9634
  20   2.0000      -0.733704       -19.9651
  21   2.0000      -0.680161       -18.5081
  22   2.0000      -0.607617       -16.5341
  23   2.0000      -0.604589       -16.4517
  24   2.0000      -0.599988       -16.3265
  25   2.0000      -0.574628       -15.6364
  26   2.0000      -0.521277       -14.1847
  27   2.0000      -0.517219       -14.0742
  28   2.0000      -0.502562       -13.6754
  29   2.0000      -0.490074       -13.3356
  30   2.0000      -0.474174       -12.9029
  31   2.0000      -0.461360       -12.5542
  32   2.0000      -0.447290       -12.1714
  33   2.0000      -0.442035       -12.0284
  34   2.0000      -0.426207       -11.5977
  35   2.0000      -0.419801       -11.4234
  36   2.0000      -0.403726       -10.9859
  37   2.0000      -0.392881       -10.6908
  38   2.0000      -0.384044       -10.4504
  39   2.0000      -0.372664       -10.1407
  40   2.0000      -0.364091        -9.9074
  41   2.0000      -0.360917        -9.8210
  42   2.0000      -0.347630        -9.4595
  43   2.0000      -0.332293        -9.0422
  44   2.0000      -0.314477        -8.5574
  45   2.0000      -0.309237        -8.4148
  46   2.0000      -0.295235        -8.0338
  47   2.0000      -0.270530        -7.3615
  48   2.0000      -0.269335        -7.3290
  49   2.0000      -0.254754        -6.9322
  50   2.0000      -0.237702        -6.4682
  51   0.0000       0.062011         1.6874
  52   0.0000       0.074860         2.0370
  53   0.0000       0.082939         2.2569
  54   0.0000       0.094899         2.5823
  55   0.0000       0.098709         2.6860

MULLIKEN ATOMIC CHARGES
-----------------------
   0 C :    0.297544
   1 C :   -0.279137
   2 C :   -0.317605
   3 C :   -0.010684
   4 O :   -0.501836
   5 H :    0.169666
   6 H :    0.158707
   7 H :    0.148000
   8 H :    0.145754
   9 H :    0.148667
  10 H :    0.144298
  11 H :    0.149227
  12 C :   -0.017305
  13 H :    0.121493
  14 H :    0.142318
  15 O :   -0.504186
  16 C :    0.078305
  17 C :    0.073909
  18 C :   -0.301289
  19 C :   -0.026360
  20 O :   -0.506559
  21 H :    0.175340
  22 O :   -0.602803
  23 H :    0.145280
  24 H :    0.164367
  25 H :    0.142147
  26 H :    0.148599
  27 H :    0.146254
  28 H :    0.367889
Sum of atomic charges:    0.0000000

LOEWDIN ATOMIC CHARGES
----------------------
   0 C :    0.173783
   1 C :   -0.229298
   2 C :   -0.224620
   3 C :   -0.034728
   4 O :   -0.322217
   5 H :    0.114793
   6 H :    0.123806
   7 H :    0.118088
   8 H :    0.115801
   9 H :    0.105509
  10 H :    0.102281
  11 H :    0.105658
  12 C :   -0.044662
  13 H :    0.097010
  14 H :    0.104204
  15 O :   -0.305751
  16 C :    0.013452
  17 C :    0.032840
  18 C :   -0.242872
  19 C :   -0.037833
  20 O :   -0.317802
  21 H :    0.123681
  22 O :   -0.414881
  23 H :    0.111636
  24 H :    0.127164
  25 H :    0.111380
  26 H :    0.105690
  27 H :    0.102806
  28 H :    0.285080

  Mayer bond orders larger than 0.100000
B(  0-C ,  1-C ) :   0.9154 B(  0-C ,  4-O ) :   0.8933 B(  0-C ,  5-H ) :   0.9358
B(  0-C , 15-O ) :   0.9180 B(  1-C ,  2-C ) :   0.9545 B(  1-C ,  6-H ) :   0.9351
B(  1-C ,  7-H ) :   0.9375 B(  2-C ,  3-C ) :   0.9447 B(  2-C ,  8-H ) :   0.9443
B(  2-C ,  9-H ) :   0.9362 B(  3-C ,  4-O ) :   0.8513 B(  3-C , 10-H ) :   0.9337
B(  3-C , 11-H ) :   0.9386 B( 12-C , 13-H ) :   0.8982 B( 12-C , 14-H ) :   0.9336
B( 12-C , 15-O ) :   0.8437 B( 12-C , 16-C ) :   0.8889 B( 16-C , 17-C ) :   0.8968
B( 16-C , 20-O ) :   0.8674 B( 16-C , 21-H ) :   0.9223 B( 17-C , 18-C ) :   0.9100
B( 17-C , 22-O ) :   0.8937 B( 17-C , 23-H ) :   0.9334 B( 18-C , 19-C ) :   0.9415
B( 18-C , 24-H ) :   0.9372 B( 18-C , 25-H ) :   0.9340 B( 19-C , 20-O ) :   0.8525
B( 19-C , 26-H ) :   0.9340 B( 19-C , 27-H ) :   0.9377 B( 22-O , 28-H ) :   0.7922

FINAL SINGLE POINT ENERGY      -652.850529911141

DIPOLE MOMENT
-------------
                                X             Y             Z
Electronic contribution:     -2.36107      -5.31553       1.43188
Nuclear contribution   :      2.81791       6.76194      -2.03915
                        -----------------------------------------
Total Dipole Moment    :      0.45684       1.44641      -0.60727
                        -----------------------------------------
Magnitude (a.u.)       :      1.63389
Magnitude (Debye)      :      4.15301

Rotational constants in cm-1:     0.053692     0.013326     0.012460
Rotational constants in MHz :  1609.642511   399.510925   373.534594

                             ****ORCA TERMINATED NORMALLY****
TOTAL RUN TIME: 0 days 0 hours 24 minutes 18 seconds 420 msec
