                         Program Version 4.2.0 -  RELEASE  -
|  1> # Test redundant internal optimization
|  2> #
|  3> ! RKS B3LYP  Opt TightSCF SmallPrint
|  4>
|  5> %basis
|  6>         Basis "6-31G"
|  7> end
|  8>
|  9> %geom
| 10> Constraints
| 11> { D 4  0  15  12  75.0   C } # D for Dihedral angle
| 12> { D 0  15  12  16  210.0   C } # D for Dihedral angle
| 13> { D 0  4  3  2   C } # D for Dihedral angle
| 14> { D 4  3  2  1   C } # D for Dihedral angle
| 15> { D 3  2  1  0   C } # D for Dihedral angle
| 16> { D 2  1  0  4   C } # D for Dihedral angle
| 17> { D 1  0  4  3   C } # D for Dihedral angle
| 18> { D 16  20  19  18   C } # D for Dihedral angle
| 19> { D 20  19  18  17   C } # D for Dihedral angle
| 20> { D 19  18  17  16   C } # D for Dihedral angle
| 21> { D 18  17  16  20   C } # D for Dihedral angle
| 22> { D 17  16  20  19   C } # D for Dihedral angle
| 23> { D 15  12  16  20   C } # D for Dihedral angle
| 24> end
| 25> end
| 26>
| 27>
| 28> #%pal
| 29> #nprocs 8
| 30> #end
| 31>
| 32> * xyz 0 1
| 33> C  -21.048   26.222   46.251
| 34> C  -20.361   27.558   45.944
| 35> C  -20.329   28.222   47.341
| 36> C  -20.110   27.022   48.296
| 37> O  -20.473   25.807   47.535
| 38> H  -20.833   25.428   45.533
| 39> H  -19.344   27.382   45.576
| 40> H  -20.898   28.157   45.201
| 41> H  -19.543   28.978   47.434
| 42> H  -21.289   28.710   47.548
| 43> H  -20.733   27.082   49.195
| 44> H  -19.064   26.913   48.597
| 45> C  -23.049   27.675   47.122
| 46> H  -22.290   27.957   47.862
| 47> H  -23.168   28.508   46.418
| 48> O  -22.586   26.394   46.375
| 49> C  -24.403   27.483   47.860
| 50> C  -24.281   26.449   48.985
| 51> C  -23.612   27.281   50.105
| 52> C  -24.230   28.689   49.914
| 53> O  -24.792   28.719   48.547
| 54> H  -25.182   27.265   47.128
| 55> H  -25.277   26.113   49.296
| 56> O  -23.448   25.202   48.581
| 57> H  -23.799   26.875   51.104
| 58> H  -22.527   27.311   49.953
| 59> H  -23.490   29.489   50.016
| 60> H  -25.055   28.880   50.606
| 61> H  -22.447   25.515   48.266
| 62> *
| 63>
| 64>                          ****END OF INPUT****
 Total Charge           Charge          ....    0
 Multiplicity           Mult            ....    1
 Number of Electrons    NEL             ....  102
FINAL SINGLE POINT ENERGY      -652.797379264455
FINAL SINGLE POINT ENERGY      -652.833685117260
FINAL SINGLE POINT ENERGY      -652.853439838176
FINAL SINGLE POINT ENERGY      -652.858002968811
FINAL SINGLE POINT ENERGY      -652.859005307925
FINAL SINGLE POINT ENERGY      -652.859275344468
FINAL SINGLE POINT ENERGY      -652.859346330364
FINAL SINGLE POINT ENERGY      -652.859358066347
FINAL SINGLE POINT ENERGY      -652.859350550455
FINAL SINGLE POINT ENERGY      -652.859350238716
                    ***********************HURRAY********************

CARTESIAN COORDINATES (ANGSTROEM)
---------------------------------
  C    -21.144899   26.379691   46.377718
  C    -20.252982   27.509613   45.842069
  C    -19.875633   28.270043   47.147205
  C    -19.766440   27.125239   48.187517
  O    -20.486121   25.964889   47.598783
  H    -21.149159   25.500871   45.731530
  H    -19.366779   27.062035   45.381864
  H    -20.757266   28.135958   45.101462
  H    -18.930128   28.812414   47.048069
  H    -20.643409   28.998723   47.416302
  H    -20.218318   27.370016   49.153534
  H    -18.733401   26.806103   48.348910
  C    -23.095919   27.802599   47.221765
  H    -22.410194   28.166767   47.992851
  H    -23.265517   28.602541   46.493701
  O    -22.555275   26.615625   46.552725
  C    -24.424595   27.415372   47.883747
  C    -24.339475   26.369034   49.012492
  C    -23.821423   27.230852   50.207966
  C    -24.505457   28.592379   49.970606
  O    -24.948147   28.609935   48.545762
  H    -25.147681   27.126307   47.117275
  H    -25.358388   26.036239   49.235080
  O    -23.588952   25.172478   48.770187
  H    -24.085424   26.782763   51.169217
  H    -22.728265   27.299617   50.158236
  H    -23.844628   29.448461   50.141794
  H    -25.406364   28.718651   50.577578
  H    -22.810759   25.360786   48.203054

 Multiplicity           Mult            ....    1
 Number of Electrons    NEL             ....  102
 Basis Dimension        Dim             ....  149

ORBITAL ENERGIES
----------------

  NO   OCC          E(Eh)            E(eV)
   0   2.0000     -19.160519      -521.3842
   1   2.0000     -19.157708      -521.3077
   2   2.0000     -19.140154      -520.8301
   3   2.0000     -19.114191      -520.1236
   4   2.0000     -10.292043      -280.0607
   5   2.0000     -10.242100      -278.7017
   6   2.0000     -10.238740      -278.6103
   7   2.0000     -10.231884      -278.4237
   8   2.0000     -10.230069      -278.3743
   9   2.0000     -10.227760      -278.3115
  10   2.0000     -10.204248      -277.6717
  11   2.0000     -10.203320      -277.6464
  12   2.0000     -10.181202      -277.0446
  13   2.0000      -1.067335       -29.0437
  14   2.0000      -1.025615       -27.9084
  15   2.0000      -1.008832       -27.4517
  16   2.0000      -0.994878       -27.0720
  17   2.0000      -0.800768       -21.7900
  18   2.0000      -0.779593       -21.2138
  19   2.0000      -0.768982       -20.9251
  20   2.0000      -0.738434       -20.0938
  21   2.0000      -0.684581       -18.6284
  22   2.0000      -0.616880       -16.7862
  23   2.0000      -0.604515       -16.4497
  24   2.0000      -0.596457       -16.2304
  25   2.0000      -0.577182       -15.7059
  26   2.0000      -0.527414       -14.3517
  27   2.0000      -0.519182       -14.1277
  28   2.0000      -0.513636       -13.9767
  29   2.0000      -0.487482       -13.2651
  30   2.0000      -0.478478       -13.0201
  31   2.0000      -0.462275       -12.5791
  32   2.0000      -0.442072       -12.0294
  33   2.0000      -0.434560       -11.8250
  34   2.0000      -0.429601       -11.6900
  35   2.0000      -0.424656       -11.5555
  36   2.0000      -0.410729       -11.1765
  37   2.0000      -0.394002       -10.7213
  38   2.0000      -0.392164       -10.6713
  39   2.0000      -0.373376       -10.1601
  40   2.0000      -0.367828       -10.0091
  41   2.0000      -0.362004        -9.8506
  42   2.0000      -0.347348        -9.4518
  43   2.0000      -0.338129        -9.2009
  44   2.0000      -0.327377        -8.9084
  45   2.0000      -0.313724        -8.5369
  46   2.0000      -0.298071        -8.1109
  47   2.0000      -0.278652        -7.5825
  48   2.0000      -0.267723        -7.2851
  49   2.0000      -0.251156        -6.8343
  50   2.0000      -0.237995        -6.4762
  51   0.0000       0.048766         1.3270
  52   0.0000       0.067020         1.8237
  53   0.0000       0.086552         2.3552
  54   0.0000       0.095128         2.5886
  55   0.0000       0.101020         2.7489

MULLIKEN ATOMIC CHARGES
-----------------------
   0 C :    0.293586
   1 C :   -0.277821
   2 C :   -0.320566
   3 C :   -0.017789
   4 O :   -0.508450
   5 H :    0.177402
   6 H :    0.161988
   7 H :    0.156438
   8 H :    0.151559
   9 H :    0.156026
  10 H :    0.148878
  11 H :    0.156209
  12 C :   -0.026203
  13 H :    0.134356
  14 H :    0.158018
  15 O :   -0.536859
  16 C :    0.063261
  17 C :    0.119369
  18 C :   -0.316264
  19 C :   -0.017940
  20 O :   -0.521895
  21 H :    0.165782
  22 H :    0.153729
  23 O :   -0.622159
  24 H :    0.151883
  25 H :    0.142695
  26 H :    0.135172
  27 H :    0.151699
  28 H :    0.387900
Sum of atomic charges:    0.0000000

LOEWDIN ATOMIC CHARGES
----------------------
   0 C :    0.169762
   1 C :   -0.225231
   2 C :   -0.224816
   3 C :   -0.034282
   4 O :   -0.324529
   5 H :    0.117794
   6 H :    0.125645
   7 H :    0.122601
   8 H :    0.119005
   9 H :    0.112437
  10 H :    0.102716
  11 H :    0.109699
  12 C :   -0.048358
  13 H :    0.095642
  14 H :    0.110792
  15 O :   -0.323414
  16 C :    0.021139
  17 C :    0.043101
  18 C :   -0.242420
  19 C :   -0.033467
  20 O :   -0.324891
  21 H :    0.118449
  22 H :    0.110625
  23 O :   -0.415826
  24 H :    0.121762
  25 H :    0.106054
  26 H :    0.098224
  27 H :    0.107173
  28 H :    0.284615

  Mayer bond orders larger than 0.100000
B(  0-C ,  1-C ) :   0.9252 B(  0-C ,  4-O ) :   0.8875 B(  0-C ,  5-H ) :   0.9320
B(  0-C , 15-O ) :   0.8859 B(  1-C ,  2-C ) :   0.9527 B(  1-C ,  6-H ) :   0.9340
B(  1-C ,  7-H ) :   0.9363 B(  2-C ,  3-C ) :   0.9454 B(  2-C ,  8-H ) :   0.9442
B(  2-C ,  9-H ) :   0.9391 B(  3-C ,  4-O ) :   0.8372 B(  3-C , 10-H ) :   0.9298
B(  3-C , 11-H ) :   0.9381 B( 12-C , 13-H ) :   0.9097 B( 12-C , 14-H ) :   0.9264
B( 12-C , 15-O ) :   0.8000 B( 12-C , 16-C ) :   0.9065 B( 16-C , 17-C ) :   0.8997
B( 16-C , 20-O ) :   0.8491 B( 16-C , 21-H ) :   0.9285 B( 17-C , 18-C ) :   0.8969
B( 17-C , 22-H ) :   0.9327 B( 17-C , 23-O ) :   0.9507 B( 18-C , 19-C ) :   0.9365
B( 18-C , 24-H ) :   0.9450 B( 18-C , 25-H ) :   0.9418 B( 19-C , 20-O ) :   0.8336
B( 19-C , 26-H ) :   0.9347 B( 19-C , 27-H ) :   0.9387 B( 23-O , 28-H ) :   0.7380

FINAL SINGLE POINT ENERGY      -652.859351744093

DIPOLE MOMENT
-------------
                                X             Y             Z
Electronic contribution:     -3.85805      -4.24071      -2.03368
Nuclear contribution   :      5.18538       5.57515       1.90687
                        -----------------------------------------
Total Dipole Moment    :      1.32733       1.33444      -0.12681
                        -----------------------------------------
Magnitude (a.u.)       :      1.88643
Magnitude (Debye)      :      4.79492

Rotational constants in cm-1:     0.045069     0.016789     0.016171
Rotational constants in MHz :  1351.147000   503.328971   484.797307

                             ****ORCA TERMINATED NORMALLY****
TOTAL RUN TIME: 0 days 1 hours 11 minutes 40 seconds 594 msec
