                         Program Version 4.2.0 -  RELEASE  -
|  1> # Test redundant internal optimization
|  2> #
|  3> ! RKS B3LYP  Opt TightSCF SmallPrint
|  4>
|  5> %basis
|  6>         Basis "6-31G"
|  7> end
|  8>
|  9> %geom
| 10> Constraints
| 11> { D 4  0  15  12  225.0   C } # D for Dihedral angle
| 12> { D 0  15  12  16  210.0   C } # D for Dihedral angle
| 13> { D 0  4  3  2   C } # D for Dihedral angle
| 14> { D 4  3  2  1   C } # D for Dihedral angle
| 15> { D 3  2  1  0   C } # D for Dihedral angle
| 16> { D 2  1  0  4   C } # D for Dihedral angle
| 17> { D 1  0  4  3   C } # D for Dihedral angle
| 18> { D 16  20  19  18   C } # D for Dihedral angle
| 19> { D 20  19  18  17   C } # D for Dihedral angle
| 20> { D 19  18  17  16   C } # D for Dihedral angle
| 21> { D 18  17  16  20   C } # D for Dihedral angle
| 22> { D 17  16  20  19   C } # D for Dihedral angle
| 23> { D 15  12  16  20   C } # D for Dihedral angle
| 24> end
| 25> end
| 26>
| 27>
| 28> #%pal
| 29> #nprocs 8
| 30> #end
| 31>
| 32> * xyz 0 1
| 33> C  -21.048   26.222   46.251
| 34> C  -20.361   27.558   45.944
| 35> C  -20.329   28.222   47.341
| 36> C  -20.110   27.022   48.296
| 37> O  -20.473   25.807   47.535
| 38> H  -20.833   25.428   45.533
| 39> H  -19.344   27.382   45.576
| 40> H  -20.898   28.157   45.201
| 41> H  -19.543   28.978   47.434
| 42> H  -21.289   28.710   47.548
| 43> H  -20.733   27.082   49.195
| 44> H  -19.064   26.913   48.597
| 45> C  -23.415   25.773   45.218
| 46> H  -22.820   25.788   44.297
| 47> H  -23.669   24.729   45.445
| 48> O  -22.586   26.394   46.375
| 49> C  -24.743   26.536   44.954
| 50> C  -25.592   26.633   46.227
| 51> C  -24.896   27.793   46.979
| 52> C  -24.446   28.735   45.835
| 53> O  -24.470   27.931   44.594
| 54> H  -25.255   26.080   44.104
| 55> O  -27.053   27.015   45.865
| 56> H  -25.611   25.703   46.805
| 57> H  -25.557   28.292   47.695
| 58> H  -24.027   27.415   47.532
| 59> H  -23.436   29.130   45.988
| 60> H  -25.135   29.573   45.688
| 61> H  -27.059   27.944   45.286
| 62> *
| 63>
| 64>                          ****END OF INPUT****
 Total Charge           Charge          ....    0
 Multiplicity           Mult            ....    1
 Number of Electrons    NEL             ....  102
FINAL SINGLE POINT ENERGY      -652.836231955749
FINAL SINGLE POINT ENERGY      -652.858397649264
FINAL SINGLE POINT ENERGY      -652.862065179671
FINAL SINGLE POINT ENERGY      -652.863061021528
FINAL SINGLE POINT ENERGY      -652.863157852107
FINAL SINGLE POINT ENERGY      -652.863168283971
                    ***********************HURRAY********************

CARTESIAN COORDINATES (ANGSTROEM)
---------------------------------
  C    -21.078992   26.188544   46.196374
  C    -20.412024   27.529700   45.897721
  C    -20.396426   28.196503   47.293243
  C    -20.166521   27.002503   48.245042
  O    -20.516488   25.790045   47.458268
  H    -20.864999   25.388338   45.482207
  H    -19.391204   27.358242   45.536157
  H    -20.962258   28.105037   45.148834
  H    -19.618182   28.959991   47.386100
  H    -21.364137   28.667080   47.491388
  H    -20.796200   27.033246   49.137527
  H    -19.119968   26.890312   48.542821
  C    -23.328192   25.782136   45.261463
  H    -22.770573   25.802752   44.315468
  H    -23.570065   24.736095   45.500884
  O    -22.519153   26.361976   46.323660
  C    -24.613896   26.577044   45.056135
  C    -25.566718   26.684061   46.255711
  C    -24.955310   27.876050   47.038062
  C    -24.431997   28.801849   45.913284
  O    -24.339894   27.967966   44.690309
  H    -25.141187   26.126802   44.206027
  O    -26.925655   26.951217   45.807213
  H    -25.634426   25.770026   46.846108
  H    -25.710870   28.354183   47.667991
  H    -24.130671   27.517193   47.656245
  H    -23.443099   29.210978   46.135459
  H    -25.116252   29.626595   45.687530
  H    -26.909643   27.688535   45.160770

 Multiplicity           Mult            ....    1
 Number of Electrons    NEL             ....  102
 Basis Dimension        Dim             ....  149

ORBITAL ENERGIES
----------------

  NO   OCC          E(Eh)            E(eV)
   0   2.0000     -19.145716      -520.9814
   1   2.0000     -19.142573      -520.8959
   2   2.0000     -19.140698      -520.8449
   3   2.0000     -19.134576      -520.6783
   4   2.0000     -10.282792      -279.8090
   5   2.0000     -10.236373      -278.5459
   6   2.0000     -10.236340      -278.5450
   7   2.0000     -10.235265      -278.5157
   8   2.0000     -10.227571      -278.3064
   9   2.0000     -10.225317      -278.2450
  10   2.0000     -10.189105      -277.2597
  11   2.0000     -10.186559      -277.1904
  12   2.0000     -10.176605      -276.9195
  13   2.0000      -1.055777       -28.7292
  14   2.0000      -1.033386       -28.1199
  15   2.0000      -1.004570       -27.3357
  16   2.0000      -0.995695       -27.0942
  17   2.0000      -0.789938       -21.4953
  18   2.0000      -0.777391       -21.1539
  19   2.0000      -0.765432       -20.8285
  20   2.0000      -0.733105       -19.9488
  21   2.0000      -0.675640       -18.3851
  22   2.0000      -0.601988       -16.3809
  23   2.0000      -0.597687       -16.2639
  24   2.0000      -0.596743       -16.2382
  25   2.0000      -0.581882       -15.8338
  26   2.0000      -0.527044       -14.3416
  27   2.0000      -0.505205       -13.7473
  28   2.0000      -0.496226       -13.5030
  29   2.0000      -0.487292       -13.2599
  30   2.0000      -0.478307       -13.0154
  31   2.0000      -0.460630       -12.5344
  32   2.0000      -0.447920       -12.1885
  33   2.0000      -0.441671       -12.0185
  34   2.0000      -0.422026       -11.4839
  35   2.0000      -0.409076       -11.1315
  36   2.0000      -0.403594       -10.9824
  37   2.0000      -0.388794       -10.5796
  38   2.0000      -0.376911       -10.2563
  39   2.0000      -0.370290       -10.0761
  40   2.0000      -0.358868        -9.7653
  41   2.0000      -0.357695        -9.7334
  42   2.0000      -0.352865        -9.6019
  43   2.0000      -0.328100        -8.9281
  44   2.0000      -0.317098        -8.6287
  45   2.0000      -0.313181        -8.5221
  46   2.0000      -0.301568        -8.2061
  47   2.0000      -0.269793        -7.3414
  48   2.0000      -0.265864        -7.2345
  49   2.0000      -0.253604        -6.9009
  50   2.0000      -0.242623        -6.6021
  51   0.0000       0.061210         1.6656
  52   0.0000       0.082101         2.2341
  53   0.0000       0.087213         2.3732
  54   0.0000       0.098512         2.6807
  55   0.0000       0.103479         2.8158

MULLIKEN ATOMIC CHARGES
-----------------------
   0 C :    0.291070
   1 C :   -0.259071
   2 C :   -0.308597
   3 C :   -0.002124
   4 O :   -0.502386
   5 H :    0.141995
   6 H :    0.143536
   7 H :    0.160237
   8 H :    0.144353
   9 H :    0.159870
  10 H :    0.150863
  11 H :    0.143551
  12 C :   -0.001249
  13 H :    0.141853
  14 H :    0.138059
  15 O :   -0.523592
  16 C :    0.066783
  17 C :    0.078125
  18 C :   -0.291810
  19 C :   -0.023868
  20 O :   -0.529222
  21 H :    0.155927
  22 O :   -0.602087
  23 H :    0.155518
  24 H :    0.148138
  25 H :    0.180827
  26 H :    0.144839
  27 H :    0.137439
  28 H :    0.361024
Sum of atomic charges:    0.0000000

LOEWDIN ATOMIC CHARGES
----------------------
   0 C :    0.179471
   1 C :   -0.224513
   2 C :   -0.217414
   3 C :   -0.026211
   4 O :   -0.310870
   5 H :    0.099683
   6 H :    0.113446
   7 H :    0.123765
   8 H :    0.115475
   9 H :    0.114588
  10 H :    0.107406
  11 H :    0.103334
  12 C :   -0.035644
  13 H :    0.102478
  14 H :    0.100886
  15 O :   -0.338624
  16 C :    0.013255
  17 C :    0.040025
  18 C :   -0.242457
  19 C :   -0.033524
  20 O :   -0.332391
  21 H :    0.116085
  22 O :   -0.416640
  23 H :    0.118145
  24 H :    0.118416
  25 H :    0.132388
  26 H :    0.102094
  27 H :    0.096420
  28 H :    0.280928

  Mayer bond orders larger than 0.100000
B(  0-C ,  1-C ) :   0.9366 B(  0-C ,  4-O ) :   0.9371 B(  0-C ,  5-H ) :   0.9204
B(  0-C , 15-O ) :   0.8280 B(  1-C ,  2-C ) :   0.9554 B(  1-C ,  6-H ) :   0.9349
B(  1-C ,  7-H ) :   0.9335 B(  2-C ,  3-C ) :   0.9536 B(  2-C ,  8-H ) :   0.9448
B(  2-C ,  9-H ) :   0.9401 B(  3-C ,  4-O ) :   0.8373 B(  3-C , 10-H ) :   0.9348
B(  3-C , 11-H ) :   0.9395 B( 12-C , 13-H ) :   0.9176 B( 12-C , 14-H ) :   0.9115
B( 12-C , 15-O ) :   0.8482 B( 12-C , 16-C ) :   0.9046 B( 16-C , 17-C ) :   0.9097
B( 16-C , 20-O ) :   0.8682 B( 16-C , 21-H ) :   0.9210 B( 17-C , 18-C ) :   0.9248
B( 17-C , 22-O ) :   0.8906 B( 17-C , 23-H ) :   0.9350 B( 18-C , 19-C ) :   0.9458
B( 18-C , 24-H ) :   0.9376 B( 18-C , 25-H ) :   0.9168 B( 19-C , 20-O ) :   0.8403
B( 19-C , 26-H ) :   0.9302 B( 19-C , 27-H ) :   0.9367 B( 22-O , 28-H ) :   0.7970

FINAL SINGLE POINT ENERGY      -652.863168242365

DIPOLE MOMENT
-------------
                                X             Y             Z
Electronic contribution:     -3.10400      -3.44935      -1.78503
Nuclear contribution   :      3.90601       4.08965       1.67058
                        -----------------------------------------
Total Dipole Moment    :      0.80201       0.64030      -0.11445
                        -----------------------------------------
Magnitude (a.u.)       :      1.03262
Magnitude (Debye)      :      2.62472

Rotational constants in cm-1:     0.054963     0.014552     0.014006
Rotational constants in MHz :  1647.743732   436.263755   419.877092

                             ****ORCA TERMINATED NORMALLY****
TOTAL RUN TIME: 0 days 0 hours 25 minutes 15 seconds 581 msec
