                         Program Version 4.2.0 -  RELEASE  -
|  1> # Test redundant internal optimization
|  2> #
|  3> ! RKS B3LYP  Opt TightSCF SmallPrint
|  4>
|  5> %basis
|  6>         Basis "6-31G"
|  7> end
|  8>
|  9> %geom
| 10> Constraints
| 11> { D 4  0  15  12  135.0   C } # D for Dihedral angle
| 12> { D 0  15  12  16  240.0   C } # D for Dihedral angle
| 13> { D 0  4  3  2   C } # D for Dihedral angle
| 14> { D 4  3  2  1   C } # D for Dihedral angle
| 15> { D 3  2  1  0   C } # D for Dihedral angle
| 16> { D 2  1  0  4   C } # D for Dihedral angle
| 17> { D 1  0  4  3   C } # D for Dihedral angle
| 18> { D 16  20  19  18   C } # D for Dihedral angle
| 19> { D 20  19  18  17   C } # D for Dihedral angle
| 20> { D 19  18  17  16   C } # D for Dihedral angle
| 21> { D 18  17  16  20   C } # D for Dihedral angle
| 22> { D 17  16  20  19   C } # D for Dihedral angle
| 23> { D 15  12  16  20   C } # D for Dihedral angle
| 24> end
| 25> end
| 26>
| 27>
| 28> #%pal
| 29> #nprocs 8
| 30> #end
| 31>
| 32> * xyz 0 1
| 33> C  -21.048   26.222   46.251
| 34> C  -20.361   27.558   45.944
| 35> C  -20.329   28.222   47.341
| 36> C  -20.110   27.022   48.296
| 37> O  -20.473   25.807   47.535
| 38> H  -20.833   25.428   45.533
| 39> H  -19.344   27.382   45.576
| 40> H  -20.898   28.157   45.201
| 41> H  -19.543   28.978   47.434
| 42> H  -21.289   28.710   47.548
| 43> H  -20.733   27.082   49.195
| 44> H  -19.064   26.913   48.597
| 45> C  -23.162   27.680   45.721
| 46> H  -22.344   28.251   45.264
| 47> H  -23.881   27.421   44.933
| 48> O  -22.586   26.394   46.375
| 49> C  -23.889   28.599   46.741
| 50> C  -24.992   27.839   47.487
| 51> C  -24.175   27.056   48.542
| 52> C  -23.027   28.034   48.895
| 53> O  -22.965   29.024   47.797
| 54> H  -24.229   29.502   46.230
| 55> H  -25.673   28.547   47.972
| 56> O  -25.827   26.912   46.562
| 57> H  -24.769   26.776   49.418
| 58> H  -23.775   26.135   48.101
| 59> H  -22.058   27.532   48.980
| 60> H  -23.220   28.589   49.818
| 61> H  -25.165   26.194   46.065
| 62> *
| 63>
| 64>                          ****END OF INPUT****
 Total Charge           Charge          ....    0
 Multiplicity           Mult            ....    1
 Number of Electrons    NEL             ....  102
FINAL SINGLE POINT ENERGY      -652.796203182816
FINAL SINGLE POINT ENERGY      -652.832604461933
FINAL SINGLE POINT ENERGY      -652.850179688193
FINAL SINGLE POINT ENERGY      -652.854205799649
FINAL SINGLE POINT ENERGY      -652.854864669834
FINAL SINGLE POINT ENERGY      -652.855016163865
FINAL SINGLE POINT ENERGY      -652.855058436359
FINAL SINGLE POINT ENERGY      -652.855062636833
                    ***********************HURRAY********************

CARTESIAN COORDINATES (ANGSTROEM)
---------------------------------
  C    -21.037628   26.353922   46.171182
  C    -20.141694   27.556603   45.861500
  C    -19.976066   28.208962   47.262593
  C    -19.949224   26.982122   48.201910
  O    -20.529082   25.860188   47.419147
  H    -20.906233   25.528397   45.466335
  H    -19.184822   27.163775   45.500901
  H    -20.521773   28.245188   45.103775
  H    -19.062091   28.805634   47.336215
  H    -20.835143   28.850505   47.483269
  H    -20.524812   27.119639   49.118886
  H    -18.932626   26.675908   48.466723
  C    -23.168135   27.737897   45.733046
  H    -22.461061   28.418499   45.249239
  H    -23.884657   27.406197   44.971709
  O    -22.487585   26.553404   46.239425
  C    -23.952948   28.521869   46.785132
  C    -25.103031   27.738419   47.443760
  C    -24.377759   27.053634   48.642314
  C    -23.338476   28.109395   49.062653
  O    -23.193121   29.048497   47.910766
  H    -24.346542   29.401036   46.258099
  H    -25.877243   28.427665   47.787433
  O    -25.783571   26.818763   46.558148
  H    -25.066994   26.791179   49.449289
  H    -23.878564   26.149718   48.280665
  H    -22.367346   27.674776   49.293332
  H    -23.671463   28.715439   49.910988
  H    -25.202309   26.048771   46.383566

 Multiplicity           Mult            ....    1
 Number of Electrons    NEL             ....  102
 Basis Dimension        Dim             ....  149

ORBITAL ENERGIES
----------------

  NO   OCC          E(Eh)            E(eV)
   0   2.0000     -19.145479      -520.9750
   1   2.0000     -19.144512      -520.9486
   2   2.0000     -19.143912      -520.9323
   3   2.0000     -19.139351      -520.8082
   4   2.0000     -10.283861      -279.8381
   5   2.0000     -10.237229      -278.5692
   6   2.0000     -10.234282      -278.4890
   7   2.0000     -10.232528      -278.4412
   8   2.0000     -10.227076      -278.2929
   9   2.0000     -10.226478      -278.2766
  10   2.0000     -10.193714      -277.3851
  11   2.0000     -10.184427      -277.1324
  12   2.0000     -10.180356      -277.0216
  13   2.0000      -1.051851       -28.6223
  14   2.0000      -1.030108       -28.0307
  15   2.0000      -1.012025       -27.5386
  16   2.0000      -0.995544       -27.0901
  17   2.0000      -0.787696       -21.4343
  18   2.0000      -0.775921       -21.1139
  19   2.0000      -0.769054       -20.9270
  20   2.0000      -0.736783       -20.0489
  21   2.0000      -0.683077       -18.5875
  22   2.0000      -0.605698       -16.4819
  23   2.0000      -0.604141       -16.4395
  24   2.0000      -0.598510       -16.2863
  25   2.0000      -0.562634       -15.3100
  26   2.0000      -0.529641       -14.4123
  27   2.0000      -0.508260       -13.8305
  28   2.0000      -0.497715       -13.5435
  29   2.0000      -0.497002       -13.5241
  30   2.0000      -0.466487       -12.6938
  31   2.0000      -0.461667       -12.5626
  32   2.0000      -0.445477       -12.1220
  33   2.0000      -0.437135       -11.8950
  34   2.0000      -0.423669       -11.5286
  35   2.0000      -0.415082       -11.2949
  36   2.0000      -0.407335       -11.0842
  37   2.0000      -0.397908       -10.8276
  38   2.0000      -0.383022       -10.4226
  39   2.0000      -0.369492       -10.0544
  40   2.0000      -0.357708        -9.7337
  41   2.0000      -0.353615        -9.6223
  42   2.0000      -0.350929        -9.5493
  43   2.0000      -0.327440        -8.9101
  44   2.0000      -0.317937        -8.6515
  45   2.0000      -0.311160        -8.4671
  46   2.0000      -0.296575        -8.0702
  47   2.0000      -0.274543        -7.4707
  48   2.0000      -0.263778        -7.1778
  49   2.0000      -0.260157        -7.0792
  50   2.0000      -0.238894        -6.5006
  51   0.0000       0.066107         1.7989
  52   0.0000       0.078798         2.1442
  53   0.0000       0.092786         2.5248
  54   0.0000       0.096553         2.6273
  55   0.0000       0.100963         2.7474

MULLIKEN ATOMIC CHARGES
-----------------------
   0 C :    0.330396
   1 C :   -0.307391
   2 C :   -0.324714
   3 C :   -0.011751
   4 O :   -0.502602
   5 H :    0.154379
   6 H :    0.155984
   7 H :    0.147979
   8 H :    0.141028
   9 H :    0.195852
  10 H :    0.146736
  11 H :    0.144023
  12 C :   -0.036285
  13 H :    0.138660
  14 H :    0.154382
  15 O :   -0.549531
  16 C :    0.106343
  17 C :    0.086316
  18 C :   -0.313246
  19 C :   -0.021229
  20 O :   -0.523143
  21 H :    0.145802
  22 H :    0.160609
  23 O :   -0.606708
  24 H :    0.147094
  25 H :    0.176594
  26 H :    0.150332
  27 H :    0.144171
  28 H :    0.369920
Sum of atomic charges:   -0.0000000

LOEWDIN ATOMIC CHARGES
----------------------
   0 C :    0.186437
   1 C :   -0.230991
   2 C :   -0.229386
   3 C :   -0.029630
   4 O :   -0.310373
   5 H :    0.101500
   6 H :    0.121847
   7 H :    0.115292
   8 H :    0.114598
   9 H :    0.131531
  10 H :    0.099769
  11 H :    0.102878
  12 C :   -0.049698
  13 H :    0.102737
  14 H :    0.111389
  15 O :   -0.349613
  16 C :    0.011686
  17 C :    0.036737
  18 C :   -0.240971
  19 C :   -0.027422
  20 O :   -0.324250
  21 H :    0.113013
  22 H :    0.115085
  23 O :   -0.409803
  24 H :    0.117539
  25 H :    0.127730
  26 H :    0.103810
  27 H :    0.102358
  28 H :    0.286202

  Mayer bond orders larger than 0.100000
B(  0-C ,  1-C ) :   0.9319 B(  0-C ,  4-O ) :   0.9271 B(  0-C ,  5-H ) :   0.9320
B(  0-C , 15-O ) :   0.8422 B(  1-C ,  2-C ) :   0.9520 B(  1-C ,  6-H ) :   0.9329
B(  1-C ,  7-H ) :   0.9247 B(  2-C ,  3-C ) :   0.9548 B(  2-C ,  8-H ) :   0.9451
B(  2-C ,  9-H ) :   0.9112 B(  3-C ,  4-O ) :   0.8368 B(  3-C , 10-H ) :   0.9185
B(  3-C , 11-H ) :   0.9393 B( 12-C , 13-H ) :   0.9136 B( 12-C , 14-H ) :   0.9100
B( 12-C , 15-O ) :   0.8468 B( 12-C , 16-C ) :   0.8989 B( 16-C , 17-C ) :   0.8873
B( 16-C , 20-O ) :   0.8706 B( 16-C , 21-H ) :   0.9237 B( 17-C , 18-C ) :   0.9320
B( 17-C , 22-H ) :   0.9368 B( 17-C , 23-O ) :   0.9051 B( 18-C , 19-C ) :   0.9472
B( 18-C , 24-H ) :   0.9407 B( 18-C , 25-H ) :   0.9246 B( 19-C , 20-O ) :   0.8319
B( 19-C , 26-H ) :   0.9140 B( 19-C , 27-H ) :   0.9392 B( 23-O , 28-H ) :   0.7892

FINAL SINGLE POINT ENERGY      -652.855062153154

DIPOLE MOMENT
-------------
                                X             Y             Z
Electronic contribution:     -3.16268      -2.18417      -1.32945
Nuclear contribution   :      3.93402       2.66275       1.23917
                        -----------------------------------------
Total Dipole Moment    :      0.77135       0.47858      -0.09028
                        -----------------------------------------
Magnitude (a.u.)       :      0.91223
Magnitude (Debye)      :      2.31871

Rotational constants in cm-1:     0.045335     0.018923     0.017282
Rotational constants in MHz :  1359.117692   567.294044   518.099432

                             ****ORCA TERMINATED NORMALLY****
TOTAL RUN TIME: 0 days 0 hours 54 minutes 39 seconds 486 msec
