                         Program Version 4.2.0 -  RELEASE  -
|  1> # Test redundant internal optimization
|  2> #
|  3> ! RKS B3LYP  Opt TightSCF SmallPrint
|  4>
|  5> %basis
|  6>         Basis "6-31G"
|  7> end
|  8>
|  9> %geom
| 10> Constraints
| 11> { D 4  0  15  12  330.0   C } # D for Dihedral angle
| 12> { D 0  15  12  16  150.0   C } # D for Dihedral angle
| 13> { D 0  4  3  2   C } # D for Dihedral angle
| 14> { D 4  3  2  1   C } # D for Dihedral angle
| 15> { D 3  2  1  0   C } # D for Dihedral angle
| 16> { D 2  1  0  4   C } # D for Dihedral angle
| 17> { D 1  0  4  3   C } # D for Dihedral angle
| 18> { D 16  20  19  18   C } # D for Dihedral angle
| 19> { D 20  19  18  17   C } # D for Dihedral angle
| 20> { D 19  18  17  16   C } # D for Dihedral angle
| 21> { D 18  17  16  20   C } # D for Dihedral angle
| 22> { D 17  16  20  19   C } # D for Dihedral angle
| 23> { D 15  12  16  20   C } # D for Dihedral angle
| 24> end
| 25> end
| 26>
| 27>
| 28> #%pal
| 29> #nprocs 8
| 30> #end
| 31>
| 32> * xyz 0 1
| 33> C  -21.048   26.222   46.251
| 34> C  -20.361   27.558   45.944
| 35> C  -20.329   28.222   47.341
| 36> C  -20.110   27.022   48.296
| 37> O  -20.473   25.807   47.535
| 38> H  -20.833   25.428   45.533
| 39> H  -19.344   27.382   45.576
| 40> H  -20.898   28.157   45.201
| 41> H  -19.543   28.978   47.434
| 42> H  -21.289   28.710   47.548
| 43> H  -20.733   27.082   49.195
| 44> H  -19.064   26.913   48.597
| 45> C  -23.271   25.476   47.424
| 46> H  -23.562   24.533   46.944
| 47> H  -22.577   25.244   48.243
| 48> O  -22.586   26.394   46.375
| 49> C  -24.540   26.119   48.048
| 50> C  -25.636   26.322   46.995
| 51> C  -26.227   24.897   46.879
| 52> C  -26.125   24.355   48.327
| 53> O  -25.145   25.211   49.028
| 54> H  -24.255   27.026   48.584
| 55> H  -26.390   27.024   47.368
| 56> O  -25.092   26.861   45.644
| 57> H  -27.255   24.893   46.503
| 58> H  -25.619   24.292   46.196
| 59> H  -25.783   23.315   48.362
| 60> H  -27.071   24.435   48.870
| 61> H  -24.334   26.173   45.252
| 62> *
| 63>
| 64>                          ****END OF INPUT****
 Total Charge           Charge          ....    0
 Multiplicity           Mult            ....    1
 Number of Electrons    NEL             ....  102
FINAL SINGLE POINT ENERGY      -652.834796043926
FINAL SINGLE POINT ENERGY      -652.858758142483
FINAL SINGLE POINT ENERGY      -652.865124542309
FINAL SINGLE POINT ENERGY      -652.867368745754
FINAL SINGLE POINT ENERGY      -652.868643999438
FINAL SINGLE POINT ENERGY      -652.869327350605
FINAL SINGLE POINT ENERGY      -652.869533218037
FINAL SINGLE POINT ENERGY      -652.869577513327
FINAL SINGLE POINT ENERGY      -652.869580223285
                    ***********************HURRAY********************

CARTESIAN COORDINATES (ANGSTROEM)
---------------------------------
  C    -21.078567   26.129856   46.305730
  C    -20.565482   27.526027   45.959518
  C    -20.515186   28.196945   47.349942
  C    -20.106353   27.043189   48.288251
  O    -20.394468   25.789264   47.525360
  H    -20.840198   25.338791   45.589541
  H    -19.564870   27.439625   45.521302
  H    -21.217556   28.046795   45.254676
  H    -19.807302   29.030345   47.386979
  H    -21.506640   28.578268   47.610974
  H    -20.670455   27.019489   49.223605
  H    -19.035974   27.025322   48.509038
  C    -23.171556   25.343003   47.471350
  H    -23.427409   24.376994   47.017123
  H    -22.484044   25.165621   48.299969
  O    -22.530485   26.199901   46.463562
  C    -24.422242   26.075931   47.966391
  C    -25.504628   26.318105   46.899675
  C    -26.197726   24.925878   46.831624
  C    -26.134672   24.432516   48.291550
  O    -25.087510   25.250576   48.971906
  H    -24.121326   27.003507   48.461864
  H    -26.216081   27.057303   47.286150
  O    -25.041791   26.800251   45.623797
  H    -27.220185   24.999294   46.451938
  H    -25.632200   24.280551   46.150959
  H    -25.865446   23.375071   48.381393
  H    -27.067277   24.605514   48.836932
  H    -24.065372   26.677068   45.561902

 Multiplicity           Mult            ....    1
 Number of Electrons    NEL             ....  102
 Basis Dimension        Dim             ....  149

ORBITAL ENERGIES
----------------

  NO   OCC          E(Eh)            E(eV)
   0   2.0000     -19.161238      -521.4038
   1   2.0000     -19.159966      -521.3692
   2   2.0000     -19.137560      -520.7595
   3   2.0000     -19.111495      -520.0502
   4   2.0000     -10.292896      -280.0839
   5   2.0000     -10.238678      -278.6086
   6   2.0000     -10.231563      -278.4150
   7   2.0000     -10.230920      -278.3975
   8   2.0000     -10.228140      -278.3219
   9   2.0000     -10.224449      -278.2214
  10   2.0000     -10.196271      -277.4546
  11   2.0000     -10.196101      -277.4500
  12   2.0000     -10.176750      -276.9234
  13   2.0000      -1.068064       -29.0635
  14   2.0000      -1.023721       -27.8569
  15   2.0000      -1.006123       -27.3780
  16   2.0000      -0.990186       -26.9443
  17   2.0000      -0.800409       -21.7802
  18   2.0000      -0.772701       -21.0263
  19   2.0000      -0.766041       -20.8450
  20   2.0000      -0.736687       -20.0463
  21   2.0000      -0.676090       -18.3974
  22   2.0000      -0.611305       -16.6345
  23   2.0000      -0.597895       -16.2696
  24   2.0000      -0.592508       -16.1230
  25   2.0000      -0.577112       -15.7040
  26   2.0000      -0.533095       -14.5063
  27   2.0000      -0.514625       -14.0036
  28   2.0000      -0.506348       -13.7784
  29   2.0000      -0.485325       -13.2064
  30   2.0000      -0.477026       -12.9805
  31   2.0000      -0.459514       -12.5040
  32   2.0000      -0.441947       -12.0260
  33   2.0000      -0.425951       -11.5907
  34   2.0000      -0.423402       -11.5214
  35   2.0000      -0.421213       -11.4618
  36   2.0000      -0.410236       -11.1631
  37   2.0000      -0.385102       -10.4792
  38   2.0000      -0.382740       -10.4149
  39   2.0000      -0.369822       -10.0634
  40   2.0000      -0.365158        -9.9365
  41   2.0000      -0.361444        -9.8354
  42   2.0000      -0.355234        -9.6664
  43   2.0000      -0.342538        -9.3209
  44   2.0000      -0.327689        -8.9169
  45   2.0000      -0.313715        -8.5366
  46   2.0000      -0.284787        -7.7495
  47   2.0000      -0.277432        -7.5493
  48   2.0000      -0.271654        -7.3921
  49   2.0000      -0.247893        -6.7455
  50   2.0000      -0.239309        -6.5119
  51   0.0000       0.060652         1.6504
  52   0.0000       0.075138         2.0446
  53   0.0000       0.092832         2.5261
  54   0.0000       0.095440         2.5971
  55   0.0000       0.101212         2.7541

MULLIKEN ATOMIC CHARGES
-----------------------
   0 C :    0.311365
   1 C :   -0.265476
   2 C :   -0.301288
   3 C :   -0.018482
   4 O :   -0.509608
   5 H :    0.157686
   6 H :    0.151411
   7 H :    0.164269
   8 H :    0.149834
   9 H :    0.161611
  10 H :    0.154255
  11 H :    0.155024
  12 C :   -0.022636
  13 H :    0.138869
  14 H :    0.185438
  15 O :   -0.576620
  16 C :    0.059752
  17 C :    0.116005
  18 C :   -0.302722
  19 C :   -0.021793
  20 O :   -0.522508
  21 H :    0.148673
  22 H :    0.146378
  23 O :   -0.640233
  24 H :    0.150526
  25 H :    0.146942
  26 H :    0.142957
  27 H :    0.148891
  28 H :    0.391480
Sum of atomic charges:   -0.0000000

LOEWDIN ATOMIC CHARGES
----------------------
   0 C :    0.183307
   1 C :   -0.215847
   2 C :   -0.216576
   3 C :   -0.029870
   4 O :   -0.315810
   5 H :    0.103603
   6 H :    0.117557
   7 H :    0.127201
   8 H :    0.118713
   9 H :    0.118238
  10 H :    0.108417
  11 H :    0.109503
  12 C :   -0.047452
  13 H :    0.098359
  14 H :    0.125008
  15 O :   -0.351692
  16 C :    0.017722
  17 C :    0.040534
  18 C :   -0.237821
  19 C :   -0.032707
  20 O :   -0.324785
  21 H :    0.110032
  22 H :    0.104441
  23 O :   -0.435620
  24 H :    0.120873
  25 H :    0.111719
  26 H :    0.101973
  27 H :    0.105515
  28 H :    0.285465

  Mayer bond orders larger than 0.100000
B(  0-C ,  1-C ) :   0.9462 B(  0-C ,  4-O ) :   0.9230 B(  0-C ,  5-H ) :   0.9244
B(  0-C , 15-O ) :   0.7981 B(  1-C ,  2-C ) :   0.9523 B(  1-C ,  6-H ) :   0.9364
B(  1-C ,  7-H ) :   0.9347 B(  2-C ,  3-C ) :   0.9551 B(  2-C ,  8-H ) :   0.9438
B(  2-C ,  9-H ) :   0.9435 B(  3-C ,  4-O ) :   0.8215 B(  3-C , 10-H ) :   0.9341
B(  3-C , 11-H ) :   0.9399 B( 12-C , 13-H ) :   0.9263 B( 12-C , 14-H ) :   0.9104
B( 12-C , 15-O ) :   0.7764 B( 12-C , 16-C ) :   0.9044 B( 16-C , 17-C ) :   0.9127
B( 16-C , 20-O ) :   0.8557 B( 16-C , 21-H ) :   0.9302 B( 17-C , 18-C ) :   0.9028
B( 17-C , 22-H ) :   0.9302 B( 17-C , 23-O ) :   0.9348 B( 18-C , 19-C ) :   0.9382
B( 18-C , 24-H ) :   0.9445 B( 18-C , 25-H ) :   0.9429 B( 19-C , 20-O ) :   0.8305
B( 19-C , 26-H ) :   0.9343 B( 19-C , 27-H ) :   0.9386 B( 23-O , 28-H ) :   0.7248

FINAL SINGLE POINT ENERGY      -652.869581389593

DIPOLE MOMENT
-------------
                                X             Y             Z
Electronic contribution:     -0.47968      -1.29863       0.00947
Nuclear contribution   :      1.36803       1.48093       0.02556
                        -----------------------------------------
Total Dipole Moment    :      0.88835       0.18230       0.03503
                        -----------------------------------------
Magnitude (a.u.)       :      0.90754
Magnitude (Debye)      :      2.30679

Rotational constants in cm-1:     0.054728     0.014318     0.012895
Rotational constants in MHz :  1640.716364   429.255110   386.575985

                             ****ORCA TERMINATED NORMALLY****
TOTAL RUN TIME: 0 days 1 hours 45 minutes 55 seconds 265 msec
