                         Program Version 4.2.0 -  RELEASE  -
|  1> # Test redundant internal optimization
|  2> #
|  3> ! RKS B3LYP  Opt TightSCF SmallPrint
|  4>
|  5> %basis
|  6>         Basis "6-31G"
|  7> end
|  8>
|  9> %geom
| 10> Constraints
| 11> { D 4  0  15  12  300.0   C } # D for Dihedral angle
| 12> { D 0  15  12  16  165.0   C } # D for Dihedral angle
| 13> { D 0  4  3  2   C } # D for Dihedral angle
| 14> { D 4  3  2  1   C } # D for Dihedral angle
| 15> { D 3  2  1  0   C } # D for Dihedral angle
| 16> { D 2  1  0  4   C } # D for Dihedral angle
| 17> { D 1  0  4  3   C } # D for Dihedral angle
| 18> { D 16  20  19  18   C } # D for Dihedral angle
| 19> { D 20  19  18  17   C } # D for Dihedral angle
| 20> { D 19  18  17  16   C } # D for Dihedral angle
| 21> { D 18  17  16  20   C } # D for Dihedral angle
| 22> { D 17  16  20  19   C } # D for Dihedral angle
| 23> { D 15  12  16  20   C } # D for Dihedral angle
| 24> end
| 25> end
| 26>
| 27>
| 28> #%pal
| 29> #nprocs 8
| 30> #end
| 31>
| 32> * xyz 0 1
| 33> C  -21.048   26.222   46.251
| 34> C  -20.361   27.558   45.944
| 35> C  -20.329   28.222   47.341
| 36> C  -20.110   27.022   48.296
| 37> O  -20.473   25.807   47.535
| 38> H  -20.833   25.428   45.533
| 39> H  -19.344   27.382   45.576
| 40> H  -20.898   28.157   45.201
| 41> H  -19.543   28.978   47.434
| 42> H  -21.289   28.710   47.548
| 43> H  -20.733   27.082   49.195
| 44> H  -19.064   26.913   48.597
| 45> C  -23.362   25.116   46.798
| 46> H  -23.410   24.424   45.948
| 47> H  -22.846   24.609   47.623
| 48> O  -22.586   26.394   46.375
| 49> C  -24.812   25.421   47.263
| 50> C  -25.660   25.978   46.114
| 51> C  -26.016   24.690   45.333
| 52> C  -26.172   23.632   46.455
| 53> O  -25.497   24.182   47.649
| 54> H  -24.778   26.057   48.149
| 55> O  -26.942   26.651   46.676
| 56> H  -25.126   26.712   45.501
| 57> H  -26.923   24.796   44.731
| 58> H  -25.195   24.420   44.658
| 59> H  -25.712   22.673   46.193
| 60> H  -27.217   23.460   46.724
| 61> H  -27.495   25.933   47.293
| 62> *
| 63>
| 64>                          ****END OF INPUT****
 Total Charge           Charge          ....    0
 Multiplicity           Mult            ....    1
 Number of Electrons    NEL             ....  102
FINAL SINGLE POINT ENERGY      -652.841610297093
FINAL SINGLE POINT ENERGY      -652.866104564870
FINAL SINGLE POINT ENERGY      -652.870048489135
FINAL SINGLE POINT ENERGY      -652.870741167520
FINAL SINGLE POINT ENERGY      -652.870833651160
FINAL SINGLE POINT ENERGY      -652.870843213270
                    ***********************HURRAY********************

CARTESIAN COORDINATES (ANGSTROEM)
---------------------------------
  C    -21.112875   26.127234   46.257825
  C    -20.573392   27.525456   45.957391
  C    -20.592804   28.177919   47.357584
  C    -20.240407   27.005641   48.299304
  O    -20.491783   25.766096   47.514534
  H    -20.841280   25.339227   45.547473
  H    -19.551065   27.441909   45.572043
  H    -21.188343   28.054694   45.226533
  H    -19.883924   29.006850   47.445266
  H    -21.596430   28.556255   47.570945
  H    -20.852693   26.980624   49.204071
  H    -19.183009   26.985552   48.578450
  C    -23.229729   25.011135   46.784293
  H    -23.243643   24.286060   45.956455
  H    -22.708907   24.559355   47.633654
  O    -22.548480   26.232259   46.365860
  C    -24.641520   25.411511   47.199534
  C    -25.505036   26.012598   46.081940
  C    -25.979278   24.740808   45.333759
  C    -26.152019   23.704353   46.472212
  O    -25.385187   24.222752   47.633275
  H    -24.587127   26.090041   48.055355
  O    -26.625061   26.756352   46.640266
  H    -24.961692   26.717663   45.455197
  H    -26.907023   24.934946   44.789744
  H    -25.219314   24.419194   44.613419
  H    -25.770548   22.713271   46.208724
  H    -27.193254   23.603038   46.793760
  H    -27.008178   26.246206   47.385132

 Multiplicity           Mult            ....    1
 Number of Electrons    NEL             ....  102
 Basis Dimension        Dim             ....  149

ORBITAL ENERGIES
----------------

  NO   OCC          E(Eh)            E(eV)
   0   2.0000     -19.148283      -521.0513
   1   2.0000     -19.143875      -520.9313
   2   2.0000     -19.142966      -520.9066
   3   2.0000     -19.133338      -520.6446
   4   2.0000     -10.280720      -279.7526
   5   2.0000     -10.233736      -278.4741
   6   2.0000     -10.231012      -278.4000
   7   2.0000     -10.230129      -278.3760
   8   2.0000     -10.227153      -278.2950
   9   2.0000     -10.226169      -278.2682
  10   2.0000     -10.186914      -277.2000
  11   2.0000     -10.186117      -277.1783
  12   2.0000     -10.186093      -277.1777
  13   2.0000      -1.057739       -28.7825
  14   2.0000      -1.033946       -28.1351
  15   2.0000      -1.002151       -27.2699
  16   2.0000      -0.996251       -27.1094
  17   2.0000      -0.791843       -21.5471
  18   2.0000      -0.777197       -21.1486
  19   2.0000      -0.766126       -20.8473
  20   2.0000      -0.729585       -19.8530
  21   2.0000      -0.671793       -18.2804
  22   2.0000      -0.602220       -16.3872
  23   2.0000      -0.600402       -16.3378
  24   2.0000      -0.588818       -16.0226
  25   2.0000      -0.581710       -15.8291
  26   2.0000      -0.522024       -14.2050
  27   2.0000      -0.515592       -14.0300
  28   2.0000      -0.496585       -13.5128
  29   2.0000      -0.489686       -13.3250
  30   2.0000      -0.470524       -12.8036
  31   2.0000      -0.455941       -12.4068
  32   2.0000      -0.450841       -12.2680
  33   2.0000      -0.436762       -11.8849
  34   2.0000      -0.422854       -11.5064
  35   2.0000      -0.409656       -11.1473
  36   2.0000      -0.401462       -10.9243
  37   2.0000      -0.390073       -10.6144
  38   2.0000      -0.376043       -10.2326
  39   2.0000      -0.365436        -9.9440
  40   2.0000      -0.358964        -9.7679
  41   2.0000      -0.355831        -9.6827
  42   2.0000      -0.349380        -9.5071
  43   2.0000      -0.339087        -9.2270
  44   2.0000      -0.323322        -8.7980
  45   2.0000      -0.306833        -8.3494
  46   2.0000      -0.298341        -8.1183
  47   2.0000      -0.273901        -7.4532
  48   2.0000      -0.263657        -7.1745
  49   2.0000      -0.257551        -7.0083
  50   2.0000      -0.246361        -6.7038
  51   0.0000       0.066573         1.8116
  52   0.0000       0.080477         2.1899
  53   0.0000       0.094640         2.5753
  54   0.0000       0.101941         2.7740
  55   0.0000       0.107590         2.9277

MULLIKEN ATOMIC CHARGES
-----------------------
   0 C :    0.294515
   1 C :   -0.263669
   2 C :   -0.297932
   3 C :   -0.006884
   4 O :   -0.512953
   5 H :    0.143000
   6 H :    0.146161
   7 H :    0.158451
   8 H :    0.142313
   9 H :    0.163994
  10 H :    0.149068
  11 H :    0.145297
  12 C :   -0.003722
  13 H :    0.123507
  14 H :    0.173759
  15 O :   -0.533550
  16 C :    0.051001
  17 C :    0.090454
  18 C :   -0.299886
  19 C :   -0.030270
  20 O :   -0.526506
  21 H :    0.163385
  22 O :   -0.604767
  23 H :    0.172899
  24 H :    0.161977
  25 H :    0.145847
  26 H :    0.145731
  27 H :    0.146239
  28 H :    0.362543
Sum of atomic charges:   -0.0000000

LOEWDIN ATOMIC CHARGES
----------------------
   0 C :    0.173703
   1 C :   -0.214446
   2 C :   -0.215767
   3 C :   -0.028213
   4 O :   -0.328321
   5 H :    0.096163
   6 H :    0.114777
   7 H :    0.124907
   8 H :    0.114358
   9 H :    0.119999
  10 H :    0.106286
  11 H :    0.104127
  12 C :   -0.043460
  13 H :    0.090283
  14 H :    0.119042
  15 O :   -0.333526
  16 C :    0.017863
  17 C :    0.037853
  18 C :   -0.241917
  19 C :   -0.038133
  20 O :   -0.330315
  21 H :    0.117336
  22 O :   -0.416385
  23 H :    0.126082
  24 H :    0.126550
  25 H :    0.113699
  26 H :    0.103848
  27 H :    0.102325
  28 H :    0.281283

  Mayer bond orders larger than 0.100000
B(  0-C ,  1-C ) :   0.9499 B(  0-C ,  4-O ) :   0.9050 B(  0-C ,  5-H ) :   0.9207
B(  0-C , 15-O ) :   0.8532 B(  1-C ,  2-C ) :   0.9557 B(  1-C ,  6-H ) :   0.9400
B(  1-C ,  7-H ) :   0.9356 B(  2-C ,  3-C ) :   0.9555 B(  2-C ,  8-H ) :   0.9449
B(  2-C ,  9-H ) :   0.9439 B(  3-C ,  4-O ) :   0.8330 B(  3-C , 10-H ) :   0.9358
B(  3-C , 11-H ) :   0.9404 B( 12-C , 13-H ) :   0.9212 B( 12-C , 14-H ) :   0.9090
B( 12-C , 15-O ) :   0.8141 B( 12-C , 16-C ) :   0.9083 B( 16-C , 17-C ) :   0.9129
B( 16-C , 20-O ) :   0.8438 B( 16-C , 21-H ) :   0.9258 B( 17-C , 18-C ) :   0.9119
B( 17-C , 22-O ) :   0.8882 B( 17-C , 23-H ) :   0.9253 B( 18-C , 19-C ) :   0.9414
B( 18-C , 24-H ) :   0.9375 B( 18-C , 25-H ) :   0.9349 B( 19-C , 20-O ) :   0.8444
B( 19-C , 26-H ) :   0.9355 B( 19-C , 27-H ) :   0.9381 B( 22-O , 28-H ) :   0.7956

FINAL SINGLE POINT ENERGY      -652.870845738404

DIPOLE MOMENT
-------------
                                X             Y             Z
Electronic contribution:     -2.06317      -1.53170       1.67884
Nuclear contribution   :      2.53801       1.51134      -2.17738
                        -----------------------------------------
Total Dipole Moment    :      0.47484      -0.02036      -0.49853
                        -----------------------------------------
Magnitude (a.u.)       :      0.68878
Magnitude (Debye)      :      1.75074

Rotational constants in cm-1:     0.057989     0.012334     0.011719
Rotational constants in MHz :  1738.473345   369.752429   351.338926

                             ****ORCA TERMINATED NORMALLY****
TOTAL RUN TIME: 0 days 0 hours 23 minutes 48 seconds 204 msec
