                         Program Version 4.2.0 -  RELEASE  -
|  1> # Test redundant internal optimization
|  2> #
|  3> ! RKS B3LYP  Opt TightSCF SmallPrint
|  4>
|  5> %basis
|  6>         Basis "6-31G"
|  7> end
|  8>
|  9> %geom
| 10> Constraints
| 11> { D 4  0  15  12  105.0   C } # D for Dihedral angle
| 12> { D 0  15  12  16  150.0   C } # D for Dihedral angle
| 13> { D 0  4  3  2   C } # D for Dihedral angle
| 14> { D 4  3  2  1   C } # D for Dihedral angle
| 15> { D 3  2  1  0   C } # D for Dihedral angle
| 16> { D 2  1  0  4   C } # D for Dihedral angle
| 17> { D 1  0  4  3   C } # D for Dihedral angle
| 18> { D 16  20  19  18   C } # D for Dihedral angle
| 19> { D 20  19  18  17   C } # D for Dihedral angle
| 20> { D 19  18  17  16   C } # D for Dihedral angle
| 21> { D 18  17  16  20   C } # D for Dihedral angle
| 22> { D 17  16  20  19   C } # D for Dihedral angle
| 23> { D 15  12  16  20   C } # D for Dihedral angle
| 24> end
| 25> end
| 26>
| 27>
| 28> #%pal
| 29> #nprocs 8
| 30> #end
| 31>
| 32> * xyz 0 1
| 33> C  -21.048   26.222   46.251
| 34> C  -20.361   27.558   45.944
| 35> C  -20.329   28.222   47.341
| 36> C  -20.110   27.022   48.296
| 37> O  -20.473   25.807   47.535
| 38> H  -20.833   25.428   45.533
| 39> H  -19.344   27.382   45.576
| 40> H  -20.898   28.157   45.201
| 41> H  -19.543   28.978   47.434
| 42> H  -21.289   28.710   47.548
| 43> H  -20.733   27.082   49.195
| 44> H  -19.064   26.913   48.597
| 45> C  -23.085   27.864   46.420
| 46> H  -23.109   28.206   47.462
| 47> H  -22.403   28.518   45.861
| 48> O  -22.586   26.394   46.375
| 49> C  -24.506   28.036   45.816
| 50> C  -24.571   27.493   44.383
| 51> C  -24.692   25.970   44.630
| 52> C  -25.548   25.889   45.919
| 53> O  -25.478   27.223   46.555
| 54> H  -24.815   29.077   45.919
| 55> H  -25.465   27.875   43.878
| 56> O  -23.328   27.868   43.531
| 57> H  -25.151   25.439   43.790
| 58> H  -23.699   25.536   44.799
| 59> H  -25.177   25.136   46.622
| 60> H  -26.602   25.688   45.708
| 61> H  -22.421   27.496   44.020
| 62> *
| 63>
| 64>                          ****END OF INPUT****
 Total Charge           Charge          ....    0
 Multiplicity           Mult            ....    1
 Number of Electrons    NEL             ....  102
FINAL SINGLE POINT ENERGY      -652.813294469020
FINAL SINGLE POINT ENERGY      -652.839403409632
FINAL SINGLE POINT ENERGY      -652.850410377517
FINAL SINGLE POINT ENERGY      -652.852874511430
FINAL SINGLE POINT ENERGY      -652.853418473238
FINAL SINGLE POINT ENERGY      -652.853530537151
FINAL SINGLE POINT ENERGY      -652.853543370571
FINAL SINGLE POINT ENERGY      -652.853544554614
                    ***********************HURRAY********************

CARTESIAN COORDINATES (ANGSTROEM)
---------------------------------
  C    -21.160716   26.354700   46.405672
  C    -20.261431   27.525762   45.992898
  C    -20.044330   28.261044   47.345025
  C    -20.000343   27.091868   48.359728
  O    -20.614624   25.930627   47.672239
  H    -21.079815   25.480557   45.756896
  H    -19.316024   27.113639   45.625652
  H    -20.680630   28.162807   45.208579
  H    -19.120490   28.847161   47.352403
  H    -20.873077   28.942243   47.559405
  H    -20.559086   27.298031   49.276832
  H    -18.978543   26.801577   48.620074
  C    -23.175245   27.929477   46.502322
  H    -23.274052   28.261368   47.542947
  H    -22.558443   28.649628   45.954406
  O    -22.590394   26.593129   46.478711
  C    -24.560025   27.927869   45.859998
  C    -24.614205   27.495598   44.384621
  C    -24.715548   25.944685   44.506426
  C    -25.571926   25.762044   45.778504
  O    -25.516144   27.050000   46.515956
  H    -24.950599   28.946710   45.981606
  H    -25.505245   27.913820   43.911276
  O    -23.500477   27.969030   43.582928
  H    -25.171383   25.489972   43.621836
  H    -23.715343   25.530945   44.654098
  H    -25.191687   24.971117   46.429980
  H    -26.625545   25.572919   45.551101
  H    -22.735633   27.370676   43.706882

 Multiplicity           Mult            ....    1
 Number of Electrons    NEL             ....  102
 Basis Dimension        Dim             ....  149

ORBITAL ENERGIES
----------------

  NO   OCC          E(Eh)            E(eV)
   0   2.0000     -19.149019      -521.0713
   1   2.0000     -19.145282      -520.9696
   2   2.0000     -19.142997      -520.9074
   3   2.0000     -19.131704      -520.6001
   4   2.0000     -10.287236      -279.9299
   5   2.0000     -10.238483      -278.6033
   6   2.0000     -10.232287      -278.4347
   7   2.0000     -10.231428      -278.4113
   8   2.0000     -10.230371      -278.3825
   9   2.0000     -10.219921      -278.0982
  10   2.0000     -10.201597      -277.5996
  11   2.0000     -10.198646      -277.5193
  12   2.0000     -10.181724      -277.0588
  13   2.0000      -1.055442       -28.7200
  14   2.0000      -1.028882       -27.9973
  15   2.0000      -1.011171       -27.5154
  16   2.0000      -0.997570       -27.1453
  17   2.0000      -0.796018       -21.6607
  18   2.0000      -0.776713       -21.1354
  19   2.0000      -0.768055       -20.8998
  20   2.0000      -0.736911       -20.0524
  21   2.0000      -0.683285       -18.5931
  22   2.0000      -0.610530       -16.6134
  23   2.0000      -0.604404       -16.4467
  24   2.0000      -0.602605       -16.3977
  25   2.0000      -0.561776       -15.2867
  26   2.0000      -0.526102       -14.3160
  27   2.0000      -0.515057       -14.0154
  28   2.0000      -0.508850       -13.8465
  29   2.0000      -0.492414       -13.3993
  30   2.0000      -0.471932       -12.8419
  31   2.0000      -0.457093       -12.4381
  32   2.0000      -0.442331       -12.0364
  33   2.0000      -0.434393       -11.8204
  34   2.0000      -0.426905       -11.6167
  35   2.0000      -0.417609       -11.3637
  36   2.0000      -0.409375       -11.1397
  37   2.0000      -0.400104       -10.8874
  38   2.0000      -0.388339       -10.5673
  39   2.0000      -0.370352       -10.0778
  40   2.0000      -0.367790       -10.0081
  41   2.0000      -0.362013        -9.8509
  42   2.0000      -0.348509        -9.4834
  43   2.0000      -0.324305        -8.8248
  44   2.0000      -0.318257        -8.6602
  45   2.0000      -0.312091        -8.4924
  46   2.0000      -0.300589        -8.1794
  47   2.0000      -0.273749        -7.4491
  48   2.0000      -0.264425        -7.1954
  49   2.0000      -0.257943        -7.0190
  50   2.0000      -0.236199        -6.4273
  51   0.0000       0.050741         1.3807
  52   0.0000       0.074492         2.0270
  53   0.0000       0.086874         2.3640
  54   0.0000       0.094808         2.5798
  55   0.0000       0.101715         2.7678

MULLIKEN ATOMIC CHARGES
-----------------------
   0 C :    0.313299
   1 C :   -0.312529
   2 C :   -0.307522
   3 C :   -0.007022
   4 O :   -0.495205
   5 H :    0.154851
   6 H :    0.160837
   7 H :    0.150039
   8 H :    0.149137
   9 H :    0.152782
  10 H :    0.151793
  11 H :    0.146982
  12 C :   -0.012905
  13 H :    0.150928
  14 H :    0.141238
  15 O :   -0.533894
  16 C :    0.093508
  17 C :    0.087108
  18 C :   -0.312701
  19 C :   -0.003652
  20 O :   -0.518691
  21 H :    0.146113
  22 H :    0.160111
  23 O :   -0.611926
  24 H :    0.141720
  25 H :    0.158534
  26 H :    0.157074
  27 H :    0.141198
  28 H :    0.358793
Sum of atomic charges:   -0.0000000

LOEWDIN ATOMIC CHARGES
----------------------
   0 C :    0.173809
   1 C :   -0.235675
   2 C :   -0.220902
   3 C :   -0.030241
   4 O :   -0.314686
   5 H :    0.105076
   6 H :    0.125122
   7 H :    0.115335
   8 H :    0.117960
   9 H :    0.111823
  10 H :    0.107236
  11 H :    0.104854
  12 C :   -0.046222
  13 H :    0.106697
  14 H :    0.101957
  15 O :   -0.328435
  16 C :    0.019184
  17 C :    0.037777
  18 C :   -0.240820
  19 C :   -0.023685
  20 O :   -0.320531
  21 H :    0.112642
  22 H :    0.115382
  23 O :   -0.414647
  24 H :    0.113732
  25 H :    0.118326
  26 H :    0.110996
  27 H :    0.100839
  28 H :    0.277098

  Mayer bond orders larger than 0.100000
B(  0-C ,  1-C ) :   0.9284 B(  0-C ,  4-O ) :   0.9166 B(  0-C ,  5-H ) :   0.9342
B(  0-C , 15-O ) :   0.8768 B(  1-C ,  2-C ) :   0.9513 B(  1-C ,  6-H ) :   0.9330
B(  1-C ,  7-H ) :   0.9260 B(  2-C ,  3-C ) :   0.9486 B(  2-C ,  8-H ) :   0.9453
B(  2-C ,  9-H ) :   0.9400 B(  3-C ,  4-O ) :   0.8449 B(  3-C , 10-H ) :   0.9337
B(  3-C , 11-H ) :   0.9390 B( 12-C , 13-H ) :   0.9202 B( 12-C , 14-H ) :   0.8919
B( 12-C , 15-O ) :   0.8363 B( 12-C , 16-C ) :   0.9100 B( 16-C , 17-C ) :   0.8833
B( 16-C , 20-O ) :   0.8833 B( 16-C , 21-H ) :   0.9281 B( 17-C , 18-C ) :   0.9395
B( 17-C , 22-H ) :   0.9356 B( 17-C , 23-O ) :   0.8911 B( 18-C , 19-C ) :   0.9473
B( 18-C , 24-H ) :   0.9409 B( 18-C , 25-H ) :   0.9270 B( 19-C , 20-O ) :   0.8391
B( 19-C , 26-H ) :   0.9306 B( 19-C , 27-H ) :   0.9372 B( 23-O , 28-H ) :   0.7948

FINAL SINGLE POINT ENERGY      -652.853543366233

DIPOLE MOMENT
-------------
                                X             Y             Z
Electronic contribution:     -3.07115      -1.78052       0.37648
Nuclear contribution   :      4.06747       2.21069      -0.76148
                        -----------------------------------------
Total Dipole Moment    :      0.99632       0.43016      -0.38500
                        -----------------------------------------
Magnitude (a.u.)       :      1.15148
Magnitude (Debye)      :      2.92684

Rotational constants in cm-1:     0.050343     0.015543     0.014327
Rotational constants in MHz :  1509.234287   465.968611   429.502202

                             ****ORCA TERMINATED NORMALLY****
TOTAL RUN TIME: 0 days 0 hours 19 minutes 5 seconds 49 msec
