                         Program Version 4.2.1 -  RELEASE  -
|  1> # Test redundant internal optimization
|  2> #
|  3> ! RKS B3LYP  Opt TightSCF SmallPrint
|  4>
|  5> %basis
|  6>         Basis "6-31G"
|  7> end
|  8>
|  9> %geom
| 10> Constraints
| 11> { D 4  0  19  14  165.0   C } # D for Dihedral angle
| 12> { D 0  19  14  12  180.0   C } # D for Dihedral angle
| 13> { D 0  4  3  2   C } # D for Dihedral angle
| 14> { D 4  3  2  1   C } # D for Dihedral angle
| 15> { D 3  2  1  0   C } # D for Dihedral angle
| 16> { D 2  1  0  4   C } # D for Dihedral angle
| 17> { D 1  0  4  3   C } # D for Dihedral angle
| 18> { D 14  15  16  17   C } # D for Dihedral angle
| 19> { D 15  16  17  12   C } # D for Dihedral angle
| 20> { D 16  17  12  14   C } # D for Dihedral angle
| 21> { D 17  12  14  15   C } # D for Dihedral angle
| 22> { D 12  14  15  16   C } # D for Dihedral angle
| 23> end
| 24> end
| 25>
| 26>
| 27> #%pal
| 28> #nprocs 8
| 29> #end
| 30>
| 31> * xyz 0 1
| 32> C  -21.048   26.222   46.251
| 33> C  -20.361   27.558   45.944
| 34> C  -20.329   28.222   47.341
| 35> C  -20.110   27.022   48.296
| 36> O  -20.473   25.807   47.535
| 37> H  -20.833   25.428   45.533
| 38> H  -19.344   27.382   45.576
| 39> H  -20.898   28.157   45.201
| 40> H  -19.543   28.978   47.434
| 41> H  -21.289   28.710   47.548
| 42> H  -20.733   27.082   49.195
| 43> H  -19.064   26.913   48.597
| 44> C  -24.590   27.213   45.502
| 45> H  -25.112   27.492   44.573
| 46> C  -23.077   27.101   45.280
| 47> C  -22.646   28.586   45.301
| 48> C  -23.599   29.215   46.348
| 49> O  -24.730   28.273   46.506
| 50> H  -25.054   26.317   45.917
| 51> O  -22.472   26.381   46.366
| 52> H  -22.816   26.596   44.343
| 53> H  -21.592   28.719   45.564
| 54> H  -22.804   29.039   44.315
| 55> H  -23.986   30.190   46.033
| 56> H  -23.130   29.320   47.331
| 57> *
| 58>
| 59>                          ****END OF INPUT****
 Total Charge           Charge          ....    0
 Multiplicity           Mult            ....    1
 Number of Electrons    NEL             ....   86
FINAL SINGLE POINT ENERGY      -538.339931951292
FINAL SINGLE POINT ENERGY      -538.414713298096
FINAL SINGLE POINT ENERGY      -538.418126620941
FINAL SINGLE POINT ENERGY      -538.418758438874
FINAL SINGLE POINT ENERGY      -538.418888066640
FINAL SINGLE POINT ENERGY      -538.418932087044
FINAL SINGLE POINT ENERGY      -538.418935475053
FINAL SINGLE POINT ENERGY      -538.418936203386
                    ***********************HURRAY********************

CARTESIAN COORDINATES (ANGSTROEM)
---------------------------------
  C    -20.944040   26.270023   46.202795
  C    -20.025065   27.477183   46.011368
  C    -20.098545   28.166663   47.400745
  C    -20.211336   26.964119   48.362441
  O    -20.640749   25.817312   47.528307
  H    -20.719587   25.441444   45.522021
  H    -19.013746   27.088275   45.841235
  H    -20.272967   28.121990   45.169480
  H    -19.219072   28.784590   47.605698
  H    -20.986203   28.803127   47.467535
  H    -20.948484   27.115634   49.154750
  H    -19.250756   26.687315   48.806954
  C    -24.591947   27.140693   45.635274
  H    -25.281956   27.316631   44.797046
  C    -23.136215   27.226904   45.174021
  C    -22.918907   28.750012   45.120887
  C    -23.767823   29.277176   46.302189
  O    -24.719653   28.198167   46.646921
  H    -24.814451   26.189931   46.118509
  O    -22.390496   26.483420   46.186844
  H    -22.982628   26.763409   44.187781
  H    -21.881684   29.070352   45.179825
  H    -23.322137   29.112109   44.166962
  H    -24.325718   30.184264   46.044108
  H    -23.168836   29.472258   47.196305

 Multiplicity           Mult            ....    1
 Number of Electrons    NEL             ....   86
 Basis Dimension        Dim             ....  127

ORBITAL ENERGIES
----------------

  NO   OCC          E(Eh)            E(eV)
   0   2.0000     -19.138794      -520.7931
   1   2.0000     -19.135001      -520.6898
   2   2.0000     -19.127827      -520.4946
   3   2.0000     -10.281218      -279.7662
   4   2.0000     -10.244244      -278.7601
   5   2.0000     -10.225344      -278.2457
   6   2.0000     -10.223640      -278.1994
   7   2.0000     -10.220043      -278.1015
   8   2.0000     -10.193045      -277.3668
   9   2.0000     -10.191876      -277.3350
  10   2.0000     -10.191004      -277.3113
  11   2.0000      -1.050547       -28.5868
  12   2.0000      -1.013314       -27.5737
  13   2.0000      -0.984062       -26.7777
  14   2.0000      -0.790285       -21.5047
  15   2.0000      -0.786562       -21.4034
  16   2.0000      -0.746349       -20.3092
  17   2.0000      -0.722850       -19.6697
  18   2.0000      -0.616174       -16.7669
  19   2.0000      -0.605641       -16.4803
  20   2.0000      -0.597264       -16.2524
  21   2.0000      -0.571678       -15.5562
  22   2.0000      -0.511219       -13.9110
  23   2.0000      -0.508812       -13.8455
  24   2.0000      -0.494854       -13.4657
  25   2.0000      -0.487253       -13.2588
  26   2.0000      -0.453916       -12.3517
  27   2.0000      -0.446006       -12.1365
  28   2.0000      -0.420716       -11.4483
  29   2.0000      -0.416401       -11.3308
  30   2.0000      -0.413501       -11.2519
  31   2.0000      -0.391768       -10.6606
  32   2.0000      -0.378672       -10.3042
  33   2.0000      -0.368029       -10.0146
  34   2.0000      -0.365248        -9.9389
  35   2.0000      -0.358937        -9.7672
  36   2.0000      -0.349230        -9.5030
  37   2.0000      -0.312299        -8.4981
  38   2.0000      -0.303479        -8.2581
  39   2.0000      -0.288691        -7.8557
  40   2.0000      -0.258174        -7.0253
  41   2.0000      -0.254792        -6.9333
  42   2.0000      -0.232472        -6.3259
  43   0.0000       0.070054         1.9063
  44   0.0000       0.083616         2.2753
  45   0.0000       0.095001         2.5851
  46   0.0000       0.107871         2.9353
  47   0.0000       0.112095         3.0503

MULLIKEN ATOMIC CHARGES
-----------------------
   0 C :    0.321356
   1 C :   -0.290251
   2 C :   -0.311550
   3 C :    0.000846
   4 O :   -0.494622
   5 H :    0.142036
   6 H :    0.150800
   7 H :    0.141293
   8 H :    0.143490
   9 H :    0.158868
  10 H :    0.158640
  11 H :    0.142758
  12 C :    0.002800
  13 H :    0.124607
  14 C :    0.081163
  15 C :   -0.304538
  16 C :   -0.000469
  17 O :   -0.516729
  18 H :    0.176899
  19 O :   -0.521424
  20 H :    0.122141
  21 H :    0.146271
  22 H :    0.140640
  23 H :    0.135583
  24 H :    0.149391
Sum of atomic charges:   -0.0000000

LOEWDIN ATOMIC CHARGES
----------------------
   0 C :    0.187469
   1 C :   -0.233321
   2 C :   -0.219552
   3 C :   -0.024992
   4 O :   -0.300518
   5 H :    0.095950
   6 H :    0.119275
   7 H :    0.111806
   8 H :    0.114969
   9 H :    0.112435
  10 H :    0.111630
  11 H :    0.102620
  12 C :   -0.031500
  13 H :    0.090629
  14 C :    0.041972
  15 C :   -0.240330
  16 C :   -0.028493
  17 O :   -0.327355
  18 H :    0.128424
  19 O :   -0.334674
  20 H :    0.091926
  21 H :    0.117353
  22 H :    0.114738
  23 H :    0.098312
  24 H :    0.101226

  Mayer bond orders larger than 0.100000
B(  0-C ,  1-C ) :   0.9228 B(  0-C ,  4-O ) :   0.9360 B(  0-C ,  5-H ) :   0.9243
B(  0-C , 19-O ) :   0.8468 B(  1-C ,  2-C ) :   0.9522 B(  1-C ,  6-H ) :   0.9313
B(  1-C ,  7-H ) :   0.9240 B(  2-C ,  3-C ) :   0.9527 B(  2-C ,  8-H ) :   0.9450
B(  2-C ,  9-H ) :   0.9346 B(  3-C ,  4-O ) :   0.8373 B(  3-C , 10-H ) :   0.9334
B(  3-C , 11-H ) :   0.9393 B( 12-C , 13-H ) :   0.9163 B( 12-C , 14-C ) :   0.9329
B( 12-C , 17-O ) :   0.8674 B( 12-C , 18-H ) :   0.9285 B( 14-C , 15-C ) :   0.9233
B( 14-C , 19-O ) :   0.8450 B( 14-C , 20-H ) :   0.9217 B( 15-C , 16-C ) :   0.9436
B( 15-C , 21-H ) :   0.9270 B( 15-C , 22-H ) :   0.9356 B( 16-C , 17-O ) :   0.8654
B( 16-C , 23-H ) :   0.9312 B( 16-C , 24-H ) :   0.9289

FINAL SINGLE POINT ENERGY      -538.418936360395

DIPOLE MOMENT
-------------
                                X             Y             Z
Electronic contribution:     -2.55789      -4.73007       1.42336
Nuclear contribution   :      3.54906       5.76427      -2.54114
                        -----------------------------------------
Total Dipole Moment    :      0.99116       1.03420      -1.11778
                        -----------------------------------------
Magnitude (a.u.)       :      1.81698
Magnitude (Debye)      :      4.61839

Rotational constants in cm-1:     0.067370     0.024371     0.023076
Rotational constants in MHz :  2019.693363   730.614023   691.787370

                             ****ORCA TERMINATED NORMALLY****
TOTAL RUN TIME: 0 days 0 hours 9 minutes 59 seconds 946 msec
