                         Program Version 4.2.0 -  RELEASE  -
|  1> # Test redundant internal optimization
|  2> #
|  3> ! RKS B3LYP  Opt TightSCF SmallPrint
|  4>
|  5> %basis
|  6>         Basis "6-31G"
|  7> end
|  8>
|  9> %geom
| 10> Constraints
| 11> { D 4  0  15  12  195.0   C } # D for Dihedral angle
| 12> { D 0  15  12  16  135.0   C } # D for Dihedral angle
| 13> { D 0  4  3  2   C } # D for Dihedral angle
| 14> { D 4  3  2  1   C } # D for Dihedral angle
| 15> { D 3  2  1  0   C } # D for Dihedral angle
| 16> { D 2  1  0  4   C } # D for Dihedral angle
| 17> { D 1  0  4  3   C } # D for Dihedral angle
| 18> { D 16  20  19  18   C } # D for Dihedral angle
| 19> { D 20  19  18  17   C } # D for Dihedral angle
| 20> { D 19  18  17  16   C } # D for Dihedral angle
| 21> { D 18  17  16  20   C } # D for Dihedral angle
| 22> { D 17  16  20  19   C } # D for Dihedral angle
| 23> { D 15  12  16  20   C } # D for Dihedral angle
| 24> end
| 25> end
| 26>
| 27>
| 28> #%pal
| 29> #nprocs 8
| 30> #end
| 31>
| 32> * xyz 0 1
| 33> C  -21.048   26.222   46.251
| 34> C  -20.361   27.558   45.944
| 35> C  -20.329   28.222   47.341
| 36> C  -20.110   27.022   48.296
| 37> O  -20.473   25.807   47.535
| 38> H  -20.833   25.428   45.533
| 39> H  -19.344   27.382   45.576
| 40> H  -20.898   28.157   45.201
| 41> H  -19.543   28.978   47.434
| 42> H  -21.289   28.710   47.548
| 43> H  -20.733   27.082   49.195
| 44> H  -19.064   26.913   48.597
| 45> C  -23.353   26.472   45.026
| 46> H  -23.644   27.513   44.835
| 47> H  -22.712   26.138   44.200
| 48> O  -22.586   26.394   46.375
| 49> C  -24.635   25.595   45.013
| 50> C  -24.317   24.137   45.363
| 51> C  -24.193   24.204   46.904
| 52> C  -25.252   25.264   47.296
| 53> O  -25.561   26.025   46.066
| 54> H  -25.150   25.729   44.060
| 55> H  -25.151   23.490   45.070
| 56> O  -23.025   23.613   44.678
| 57> H  -24.371   23.238   47.387
| 58> H  -23.188   24.540   47.187
| 59> H  -24.891   25.955   48.065
| 60> H  -26.188   24.813   47.638
| 61> H  -22.177   24.247   44.957
| 62> *
| 63>
| 64>                          ****END OF INPUT****
 Total Charge           Charge          ....    0
 Multiplicity           Mult            ....    1
 Number of Electrons    NEL             ....  102
FINAL SINGLE POINT ENERGY      -652.828437801230
FINAL SINGLE POINT ENERGY      -652.852376569162
FINAL SINGLE POINT ENERGY      -652.857138014104
FINAL SINGLE POINT ENERGY      -652.859819218912
FINAL SINGLE POINT ENERGY      -652.860310251910
FINAL SINGLE POINT ENERGY      -652.860493796637
FINAL SINGLE POINT ENERGY      -652.860523473687
FINAL SINGLE POINT ENERGY      -652.860528370039
FINAL SINGLE POINT ENERGY      -652.860528481421
FINAL SINGLE POINT ENERGY      -652.860526788894
FINAL SINGLE POINT ENERGY      -652.860524318971
                    ***********************HURRAY********************

CARTESIAN COORDINATES (ANGSTROEM)
---------------------------------
  C    -21.063289   26.278969   46.179074
  C    -20.349905   27.601427   45.906710
  C    -20.363746   28.266667   47.303917
  C    -20.199759   27.066472   48.259250
  O    -20.556794   25.865004   47.455382
  H    -20.856081   25.480645   45.457357
  H    -19.323386   27.398277   45.578785
  H    -20.843402   28.205082   45.140030
  H    -19.567553   29.007308   47.423718
  H    -21.325841   28.760667   47.468016
  H    -20.860813   27.110787   49.127673
  H    -19.168021   26.921674   48.591951
  C    -23.247307   26.545801   45.062401
  H    -23.528452   27.591506   44.893029
  H    -22.630057   26.201155   44.221490
  O    -22.501542   26.458706   46.316415
  C    -24.510179   25.690446   45.106955
  C    -24.287422   24.187359   45.343909
  C    -24.206401   24.114573   46.900112
  C    -25.213900   25.199687   47.339349
  O    -25.435866   26.076691   46.163206
  H    -25.040210   25.865464   44.161935
  H    -25.148898   23.628378   44.968537
  O    -23.126505   23.653866   44.649845
  H    -24.470210   23.122432   47.279437
  H    -23.196824   24.376578   47.226072
  H    -24.834931   25.808766   48.164223
  H    -26.188265   24.782910   47.612463
  H    -22.373442   23.580702   45.269759

 Multiplicity           Mult            ....    1
 Number of Electrons    NEL             ....  102
 Basis Dimension        Dim             ....  149

ORBITAL ENERGIES
----------------

  NO   OCC          E(Eh)            E(eV)
   0   2.0000     -19.148286      -521.0514
   1   2.0000     -19.144847      -520.9578
   2   2.0000     -19.140743      -520.8461
   3   2.0000     -19.129877      -520.5504
   4   2.0000     -10.286275      -279.9038
   5   2.0000     -10.235166      -278.5130
   6   2.0000     -10.230432      -278.3842
   7   2.0000     -10.227918      -278.3158
   8   2.0000     -10.226649      -278.2813
   9   2.0000     -10.217825      -278.0411
  10   2.0000     -10.191017      -277.3117
  11   2.0000     -10.190213      -277.2898
  12   2.0000     -10.177670      -276.9485
  13   2.0000      -1.059452       -28.8291
  14   2.0000      -1.025191       -27.8969
  15   2.0000      -1.008112       -27.4321
  16   2.0000      -0.996242       -27.1091
  17   2.0000      -0.790928       -21.5223
  18   2.0000      -0.770763       -20.9735
  19   2.0000      -0.763271       -20.7696
  20   2.0000      -0.734181       -19.9781
  21   2.0000      -0.675949       -18.3935
  22   2.0000      -0.605661       -16.4809
  23   2.0000      -0.600898       -16.3513
  24   2.0000      -0.597564       -16.2605
  25   2.0000      -0.564365       -15.3572
  26   2.0000      -0.526922       -14.3383
  27   2.0000      -0.501679       -13.6514
  28   2.0000      -0.501041       -13.6340
  29   2.0000      -0.494405       -13.4535
  30   2.0000      -0.471100       -12.8193
  31   2.0000      -0.456050       -12.4098
  32   2.0000      -0.444780       -12.1031
  33   2.0000      -0.427705       -11.6384
  34   2.0000      -0.424471       -11.5504
  35   2.0000      -0.413466       -11.2510
  36   2.0000      -0.405401       -11.0315
  37   2.0000      -0.397148       -10.8070
  38   2.0000      -0.379345       -10.3225
  39   2.0000      -0.363854        -9.9010
  40   2.0000      -0.361311        -9.8318
  41   2.0000      -0.355905        -9.6847
  42   2.0000      -0.349890        -9.5210
  43   2.0000      -0.323088        -8.7917
  44   2.0000      -0.314909        -8.5691
  45   2.0000      -0.310553        -8.4506
  46   2.0000      -0.307035        -8.3548
  47   2.0000      -0.267358        -7.2752
  48   2.0000      -0.262890        -7.1536
  49   2.0000      -0.258266        -7.0278
  50   2.0000      -0.233425        -6.3518
  51   0.0000       0.056313         1.5324
  52   0.0000       0.080658         2.1948
  53   0.0000       0.093011         2.5310
  54   0.0000       0.100784         2.7425
  55   0.0000       0.108268         2.9461

MULLIKEN ATOMIC CHARGES
-----------------------
   0 C :    0.290438
   1 C :   -0.267662
   2 C :   -0.299132
   3 C :   -0.002035
   4 O :   -0.512855
   5 H :    0.133960
   6 H :    0.146011
   7 H :    0.149190
   8 H :    0.144411
   9 H :    0.165268
  10 H :    0.155341
  11 H :    0.144064
  12 C :   -0.015668
  13 H :    0.148487
  14 H :    0.140782
  15 O :   -0.516793
  16 C :    0.096425
  17 C :    0.090527
  18 C :   -0.326969
  19 C :    0.001921
  20 O :   -0.522471
  21 H :    0.143524
  22 H :    0.155951
  23 O :   -0.619775
  24 H :    0.138427
  25 H :    0.181528
  26 H :    0.151312
  27 H :    0.137272
  28 H :    0.368519
Sum of atomic charges:   -0.0000000

LOEWDIN ATOMIC CHARGES
----------------------
   0 C :    0.173340
   1 C :   -0.228118
   2 C :   -0.216218
   3 C :   -0.023785
   4 O :   -0.311216
   5 H :    0.090816
   6 H :    0.114640
   7 H :    0.117429
   8 H :    0.115750
   9 H :    0.120865
  10 H :    0.110122
  11 H :    0.103617
  12 C :   -0.046368
  13 H :    0.106932
  14 H :    0.105791
  15 O :   -0.336041
  16 C :    0.020014
  17 C :    0.037551
  18 C :   -0.244364
  19 C :   -0.021495
  20 O :   -0.323341
  21 H :    0.111517
  22 H :    0.111546
  23 O :   -0.418876
  24 H :    0.111676
  25 H :    0.128286
  26 H :    0.107881
  27 H :    0.099094
  28 H :    0.282958

  Mayer bond orders larger than 0.100000
B(  0-C ,  1-C ) :   0.9305 B(  0-C ,  4-O ) :   0.9268 B(  0-C ,  5-H ) :   0.9118
B(  0-C , 15-O ) :   0.8337 B(  1-C ,  2-C ) :   0.9524 B(  1-C ,  6-H ) :   0.9339
B(  1-C ,  7-H ) :   0.9359 B(  2-C ,  3-C ) :   0.9565 B(  2-C ,  8-H ) :   0.9447
B(  2-C ,  9-H ) :   0.9432 B(  3-C ,  4-O ) :   0.8294 B(  3-C , 10-H ) :   0.9348
B(  3-C , 11-H ) :   0.9397 B( 12-C , 13-H ) :   0.9248 B( 12-C , 14-H ) :   0.9030
B( 12-C , 15-O ) :   0.8353 B( 12-C , 16-C ) :   0.9131 B( 16-C , 17-C ) :   0.8873
B( 16-C , 20-O ) :   0.8802 B( 16-C , 21-H ) :   0.9272 B( 17-C , 18-C ) :   0.9437
B( 17-C , 22-H ) :   0.9336 B( 17-C , 23-O ) :   0.8877 B( 18-C , 19-C ) :   0.9447
B( 18-C , 24-H ) :   0.9410 B( 18-C , 25-H ) :   0.9173 B( 19-C , 20-O ) :   0.8397
B( 19-C , 26-H ) :   0.9325 B( 19-C , 27-H ) :   0.9385 B( 23-O , 28-H ) :   0.7914

FINAL SINGLE POINT ENERGY      -652.860521891509

DIPOLE MOMENT
-------------
                                X             Y             Z
Electronic contribution:     -2.62558      -2.62586      -1.44853
Nuclear contribution   :      3.50975       3.12844       1.63424
                        -----------------------------------------
Total Dipole Moment    :      0.88417       0.50258       0.18572
                        -----------------------------------------
Magnitude (a.u.)       :      1.03384
Magnitude (Debye)      :      2.62782

Rotational constants in cm-1:     0.047219     0.015732     0.015322
Rotational constants in MHz :  1415.585744   471.623781   459.328055

                             ****ORCA TERMINATED NORMALLY****
TOTAL RUN TIME: 0 days 0 hours 29 minutes 35 seconds 353 msec
