                         Program Version 4.2.0 -  RELEASE  -
|  1> # Test redundant internal optimization
|  2> #
|  3> ! RKS B3LYP  Opt TightSCF SmallPrint
|  4>
|  5> %basis
|  6>         Basis "6-31G"
|  7> end
|  8>
|  9> %geom
| 10> Constraints
| 11> { D 4  0  15  12  240.0   C } # D for Dihedral angle
| 12> { D 0  15  12  16  90.0   C } # D for Dihedral angle
| 13> { D 0  4  3  2   C } # D for Dihedral angle
| 14> { D 4  3  2  1   C } # D for Dihedral angle
| 15> { D 3  2  1  0   C } # D for Dihedral angle
| 16> { D 2  1  0  4   C } # D for Dihedral angle
| 17> { D 1  0  4  3   C } # D for Dihedral angle
| 18> { D 16  20  19  18   C } # D for Dihedral angle
| 19> { D 20  19  18  17   C } # D for Dihedral angle
| 20> { D 19  18  17  16   C } # D for Dihedral angle
| 21> { D 18  17  16  20   C } # D for Dihedral angle
| 22> { D 17  16  20  19   C } # D for Dihedral angle
| 23> { D 15  12  16  20   C } # D for Dihedral angle
| 24> end
| 25> end
| 26>
| 27>
| 28> #%pal
| 29> #nprocs 8
| 30> #end
| 31>
| 32> * xyz 0 1
| 33> C  -21.048   26.222   46.251
| 34> C  -20.361   27.558   45.944
| 35> C  -20.329   28.222   47.341
| 36> C  -20.110   27.022   48.296
| 37> O  -20.473   25.807   47.535
| 38> H  -20.833   25.428   45.533
| 39> H  -19.344   27.382   45.576
| 40> H  -20.898   28.157   45.201
| 41> H  -19.543   28.978   47.434
| 42> H  -21.289   28.710   47.548
| 43> H  -20.733   27.082   49.195
| 44> H  -19.064   26.913   48.597
| 45> C  -23.430   25.483   45.442
| 46> H  -24.364   25.996   45.183
| 47> H  -22.884   25.274   44.513
| 48> O  -22.586   26.394   46.375
| 49> C  -23.787   24.120   46.097
| 50> C  -24.518   23.203   45.110
| 51> C  -23.346   22.661   44.258
| 52> C  -22.192   22.539   45.284
| 53> O  -22.568   23.381   46.441
| 54> H  -24.325   24.301   47.030
| 55> H  -25.014   22.387   45.649
| 56> O  -25.585   23.947   44.262
| 57> H  -23.578   21.706   43.775
| 58> H  -23.089   23.380   43.471
| 59> H  -21.235   22.889   44.882
| 60> H  -22.069   21.517   45.655
| 61> H  -25.113   24.768   43.711
| 62> *
| 63>
| 64>                          ****END OF INPUT****
 Total Charge           Charge          ....    0
 Multiplicity           Mult            ....    1
 Number of Electrons    NEL             ....  102
FINAL SINGLE POINT ENERGY      -652.826852036499
FINAL SINGLE POINT ENERGY      -652.850066261684
FINAL SINGLE POINT ENERGY      -652.854534876659
FINAL SINGLE POINT ENERGY      -652.855248416136
FINAL SINGLE POINT ENERGY      -652.855355787743
FINAL SINGLE POINT ENERGY      -652.855379429728
FINAL SINGLE POINT ENERGY      -652.855381790036
                    ***********************HURRAY********************

CARTESIAN COORDINATES (ANGSTROEM)
---------------------------------
  C    -20.999995   26.220723   46.198109
  C    -20.389477   27.602951   45.969637
  C    -20.433945   28.212605   47.392335
  C    -20.168666   26.989621   48.296790
  O    -20.444509   25.797950   47.456657
  H    -20.743548   25.456690   45.460763
  H    -19.353263   27.492182   45.627227
  H    -20.946047   28.186370   45.232607
  H    -19.696435   29.008130   47.534803
  H    -21.430267   28.622898   47.582782
  H    -20.817475   26.956063   49.175450
  H    -19.124130   26.915021   48.614907
  C    -23.272113   25.555549   45.413337
  H    -24.181412   26.138809   45.238013
  H    -22.762240   25.407389   44.446891
  O    -22.444013   26.365901   46.284492
  C    -23.649163   24.215207   46.045652
  C    -24.499173   23.301325   45.146407
  C    -23.410755   22.615215   44.268182
  C    -22.226961   22.463596   45.248181
  O    -22.480833   23.401479   46.372831
  H    -24.137628   24.423205   47.001795
  H    -25.013403   22.562361   45.764554
  O    -25.557385   23.962289   44.410408
  H    -23.751011   21.660963   43.858640
  H    -23.153074   23.270526   43.424700
  H    -21.260345   22.702713   44.793113
  H    -22.170789   21.459393   45.677939
  H    -25.189945   24.459875   43.651796

 Multiplicity           Mult            ....    1
 Number of Electrons    NEL             ....  102
 Basis Dimension        Dim             ....  149

ORBITAL ENERGIES
----------------

  NO   OCC          E(Eh)            E(eV)
   0   2.0000     -19.150438      -521.1099
   1   2.0000     -19.137148      -520.7483
   2   2.0000     -19.135500      -520.7034
   3   2.0000     -19.128030      -520.5002
   4   2.0000     -10.271462      -279.5007
   5   2.0000     -10.245352      -278.7902
   6   2.0000     -10.232086      -278.4292
   7   2.0000     -10.230625      -278.3895
   8   2.0000     -10.226737      -278.2837
   9   2.0000     -10.215497      -277.9778
  10   2.0000     -10.196819      -277.4695
  11   2.0000     -10.178442      -276.9695
  12   2.0000     -10.178302      -276.9657
  13   2.0000      -1.044531       -28.4231
  14   2.0000      -1.033001       -28.1094
  15   2.0000      -1.015162       -27.6240
  16   2.0000      -0.987119       -26.8609
  17   2.0000      -0.784028       -21.3345
  18   2.0000      -0.779507       -21.2115
  19   2.0000      -0.763802       -20.7841
  20   2.0000      -0.725962       -19.7544
  21   2.0000      -0.678811       -18.4714
  22   2.0000      -0.612451       -16.6656
  23   2.0000      -0.591824       -16.1044
  24   2.0000      -0.589096       -16.0301
  25   2.0000      -0.574358       -15.6291
  26   2.0000      -0.528061       -14.3693
  27   2.0000      -0.508907       -13.8481
  28   2.0000      -0.497536       -13.5387
  29   2.0000      -0.482365       -13.1258
  30   2.0000      -0.463654       -12.6167
  31   2.0000      -0.452994       -12.3266
  32   2.0000      -0.446449       -12.1485
  33   2.0000      -0.430170       -11.7055
  34   2.0000      -0.429033       -11.6746
  35   2.0000      -0.415698       -11.3117
  36   2.0000      -0.406752       -11.0683
  37   2.0000      -0.389881       -10.6092
  38   2.0000      -0.381177       -10.3724
  39   2.0000      -0.363743        -9.8980
  40   2.0000      -0.354703        -9.6520
  41   2.0000      -0.349050        -9.4981
  42   2.0000      -0.343546        -9.3484
  43   2.0000      -0.330273        -8.9872
  44   2.0000      -0.314530        -8.5588
  45   2.0000      -0.307956        -8.3799
  46   2.0000      -0.298667        -8.1271
  47   2.0000      -0.270720        -7.3667
  48   2.0000      -0.263312        -7.1651
  49   2.0000      -0.248833        -6.7711
  50   2.0000      -0.228783        -6.2255
  51   0.0000       0.048628         1.3232
  52   0.0000       0.066438         1.8079
  53   0.0000       0.090842         2.4719
  54   0.0000       0.098602         2.6831
  55   0.0000       0.108408         2.9499

MULLIKEN ATOMIC CHARGES
-----------------------
   0 C :    0.300336
   1 C :   -0.254173
   2 C :   -0.300510
   3 C :   -0.000427
   4 O :   -0.491350
   5 H :    0.136762
   6 H :    0.138870
   7 H :    0.141670
   8 H :    0.137525
   9 H :    0.161899
  10 H :    0.150525
  11 H :    0.136988
  12 C :   -0.038519
  13 H :    0.156167
  14 H :    0.109500
  15 O :   -0.511439
  16 C :    0.101640
  17 C :    0.086416
  18 C :   -0.324467
  19 C :   -0.008191
  20 O :   -0.499733
  21 H :    0.167627
  22 H :    0.169347
  23 O :   -0.601041
  24 H :    0.157355
  25 H :    0.130155
  26 H :    0.139991
  27 H :    0.151902
  28 H :    0.355173
Sum of atomic charges:   -0.0000000

LOEWDIN ATOMIC CHARGES
----------------------
   0 C :    0.180099
   1 C :   -0.222903
   2 C :   -0.217157
   3 C :   -0.027208
   4 O :   -0.305392
   5 H :    0.097822
   6 H :    0.110194
   7 H :    0.115729
   8 H :    0.111783
   9 H :    0.118981
  10 H :    0.107242
  11 H :    0.099806
  12 C :   -0.048325
  13 H :    0.115783
  14 H :    0.082702
  15 O :   -0.325599
  16 C :    0.010221
  17 C :    0.034649
  18 C :   -0.242013
  19 C :   -0.029944
  20 O :   -0.310426
  21 H :    0.121677
  22 H :    0.120432
  23 O :   -0.407867
  24 H :    0.122846
  25 H :    0.101825
  26 H :    0.100185
  27 H :    0.107457
  28 H :    0.277399

  Mayer bond orders larger than 0.100000
B(  0-C ,  1-C ) :   0.9400 B(  0-C ,  4-O ) :   0.9329 B(  0-C ,  5-H ) :   0.9196
B(  0-C , 15-O ) :   0.8282 B(  1-C ,  2-C ) :   0.9576 B(  1-C ,  6-H ) :   0.9377
B(  1-C ,  7-H ) :   0.9391 B(  2-C ,  3-C ) :   0.9531 B(  2-C ,  8-H ) :   0.9457
B(  2-C ,  9-H ) :   0.9438 B(  3-C ,  4-O ) :   0.8444 B(  3-C , 10-H ) :   0.9345
B(  3-C , 11-H ) :   0.9399 B( 12-C , 13-H ) :   0.9220 B( 12-C , 14-H ) :   0.9231
B( 12-C , 15-O ) :   0.8799 B( 12-C , 16-C ) :   0.8868 B( 16-C , 17-C ) :   0.8666
B( 16-C , 20-O ) :   0.8694 B( 16-C , 21-H ) :   0.9289 B( 17-C , 18-C ) :   0.9236
B( 17-C , 22-H ) :   0.9319 B( 17-C , 23-O ) :   0.8963 B( 18-C , 19-C ) :   0.9362
B( 18-C , 24-H ) :   0.9420 B( 18-C , 25-H ) :   0.9408 B( 19-C , 20-O ) :   0.8499
B( 19-C , 26-H ) :   0.9314 B( 19-C , 27-H ) :   0.9380 B( 23-O , 28-H ) :   0.7993

FINAL SINGLE POINT ENERGY      -652.855381681611

DIPOLE MOMENT
-------------
                                X             Y             Z
Electronic contribution:     -2.80046      -2.30140       1.84898
Nuclear contribution   :      3.23141       2.55427      -3.14210
                        -----------------------------------------
Total Dipole Moment    :      0.43094       0.25288      -1.29312
                        -----------------------------------------
Magnitude (a.u.)       :      1.38630
Magnitude (Debye)      :      3.52368

Rotational constants in cm-1:     0.059524     0.013309     0.012130
Rotational constants in MHz :  1784.470783   399.001038   363.657045

                             ****ORCA TERMINATED NORMALLY****
TOTAL RUN TIME: 0 days 1 hours 19 minutes 4 seconds 351 msec
