                         Program Version 4.2.1 -  RELEASE  -
|  1> # Test redundant internal optimization
|  2> #
|  3> ! RKS B3LYP  Opt TightSCF SmallPrint
|  4>
|  5> %basis
|  6>         Basis "6-31G"
|  7> end
|  8>
|  9> %geom
| 10> Constraints
| 11> { D 4  0  19  14  135.0   C } # D for Dihedral angle
| 12> { D 0  19  14  12  60.0   C } # D for Dihedral angle
| 13> { D 0  4  3  2   C } # D for Dihedral angle
| 14> { D 4  3  2  1   C } # D for Dihedral angle
| 15> { D 3  2  1  0   C } # D for Dihedral angle
| 16> { D 2  1  0  4   C } # D for Dihedral angle
| 17> { D 1  0  4  3   C } # D for Dihedral angle
| 18> { D 14  15  16  17   C } # D for Dihedral angle
| 19> { D 15  16  17  12   C } # D for Dihedral angle
| 20> { D 16  17  12  14   C } # D for Dihedral angle
| 21> { D 17  12  14  15   C } # D for Dihedral angle
| 22> { D 12  14  15  16   C } # D for Dihedral angle
| 23> end
| 24> end
| 25>
| 26>
| 27> #%pal
| 28> #nprocs 8
| 29> #end
| 30>
| 31> * xyz 0 1
| 32> C  -21.048   26.222   46.251
| 33> C  -20.361   27.558   45.944
| 34> C  -20.329   28.222   47.341
| 35> C  -20.110   27.022   48.296
| 36> O  -20.473   25.807   47.535
| 37> H  -20.833   25.428   45.533
| 38> H  -19.344   27.382   45.576
| 39> H  -20.898   28.157   45.201
| 40> H  -19.543   28.978   47.434
| 41> H  -21.289   28.710   47.548
| 42> H  -20.733   27.082   49.195
| 43> H  -19.064   26.913   48.597
| 44> C  -22.663   27.580   44.256
| 45> H  -22.779   28.586   43.824
| 46> C  -22.986   27.575   45.755
| 47> C  -24.532   27.561   45.743
| 48> C  -24.867   26.694   44.504
| 49> O  -23.643   26.657   43.673
| 50> H  -21.673   27.195   44.005
| 51> O  -22.472   26.381   46.366
| 52> H  -22.573   28.440   46.286
| 53> H  -24.961   27.156   46.665
| 54> H  -24.918   28.581   45.616
| 55> H  -25.691   27.106   43.912
| 56> H  -25.106   25.659   44.771
| 57> *
| 58>
| 59>                          ****END OF INPUT****
 Total Charge           Charge          ....    0
 Multiplicity           Mult            ....    1
 Number of Electrons    NEL             ....   86
FINAL SINGLE POINT ENERGY      -538.403858426523
FINAL SINGLE POINT ENERGY      -538.421081383463
FINAL SINGLE POINT ENERGY      -538.422886634257
FINAL SINGLE POINT ENERGY      -538.423227443685
FINAL SINGLE POINT ENERGY      -538.423263287565
FINAL SINGLE POINT ENERGY      -538.423274537573
FINAL SINGLE POINT ENERGY      -538.423275245570
                    ***********************HURRAY********************

CARTESIAN COORDINATES (ANGSTROEM)
---------------------------------
  C    -21.031807   26.258198   46.288745
  C    -20.110150   27.444610   45.987280
  C    -20.101034   28.206427   47.344729
  C    -20.174471   27.050226   48.368610
  O    -20.658726   25.869749   47.622359
  H    -20.880784   25.382334   45.656236
  H    -19.111156   27.053172   45.765247
  H    -20.417090   28.071848   45.150957
  H    -19.203304   28.818895   47.470406
  H    -20.973590   28.863027   47.427617
  H    -20.861268   27.252486   49.195037
  H    -19.192910   26.786912   48.773825
  C    -22.865047   27.805054   44.154527
  H    -23.167969   28.804652   43.805009
  C    -23.085548   27.698687   45.664227
  C    -24.602684   27.444115   45.739367
  C    -24.884532   26.579034   44.487936
  O    -23.723524   26.763334   43.586482
  H    -21.853947   27.598298   43.806099
  O    -22.463676   26.542740   46.293947
  H    -22.794116   28.621322   46.184607
  H    -24.858328   26.941080   46.674031
  H    -25.138196   28.398886   45.692631
  H    -25.796586   26.883173   43.962719
  H    -24.938556   25.513743   44.724371

 Multiplicity           Mult            ....    1
 Number of Electrons    NEL             ....   86
 Basis Dimension        Dim             ....  127

ORBITAL ENERGIES
----------------

  NO   OCC          E(Eh)            E(eV)
   0   2.0000     -19.138302      -520.7797
   1   2.0000     -19.135935      -520.7153
   2   2.0000     -19.129932      -520.5519
   3   2.0000     -10.279852      -279.7290
   4   2.0000     -10.243848      -278.7493
   5   2.0000     -10.226965      -278.2899
   6   2.0000     -10.226375      -278.2738
   7   2.0000     -10.219251      -278.0800
   8   2.0000     -10.194593      -277.4090
   9   2.0000     -10.194237      -277.3993
  10   2.0000     -10.184775      -277.1418
  11   2.0000      -1.050784       -28.5933
  12   2.0000      -1.015385       -27.6300
  13   2.0000      -0.986863       -26.8539
  14   2.0000      -0.791103       -21.5270
  15   2.0000      -0.784655       -21.3515
  16   2.0000      -0.738543       -20.0968
  17   2.0000      -0.729262       -19.8442
  18   2.0000      -0.621257       -16.9053
  19   2.0000      -0.606695       -16.5090
  20   2.0000      -0.595732       -16.2107
  21   2.0000      -0.565039       -15.3755
  22   2.0000      -0.522286       -14.2121
  23   2.0000      -0.501326       -13.6418
  24   2.0000      -0.493230       -13.4215
  25   2.0000      -0.486298       -13.2328
  26   2.0000      -0.453214       -12.3326
  27   2.0000      -0.449453       -12.2302
  28   2.0000      -0.431762       -11.7488
  29   2.0000      -0.414576       -11.2812
  30   2.0000      -0.412320       -11.2198
  31   2.0000      -0.387044       -10.5320
  32   2.0000      -0.370348       -10.0777
  33   2.0000      -0.369051       -10.0424
  34   2.0000      -0.366341        -9.9687
  35   2.0000      -0.357973        -9.7409
  36   2.0000      -0.351273        -9.5586
  37   2.0000      -0.313824        -8.5396
  38   2.0000      -0.307123        -8.3572
  39   2.0000      -0.289624        -7.8811
  40   2.0000      -0.264246        -7.1905
  41   2.0000      -0.248665        -6.7665
  42   2.0000      -0.236467        -6.4346
  43   0.0000       0.069743         1.8978
  44   0.0000       0.093932         2.5560
  45   0.0000       0.095568         2.6005
  46   0.0000       0.101232         2.7547
  47   0.0000       0.109927         2.9913

MULLIKEN ATOMIC CHARGES
-----------------------
   0 C :    0.321511
   1 C :   -0.300292
   2 C :   -0.308073
   3 C :    0.000607
   4 O :   -0.496109
   5 H :    0.161857
   6 H :    0.155673
   7 H :    0.142475
   8 H :    0.145690
   9 H :    0.152159
  10 H :    0.149782
  11 H :    0.143988
  12 C :   -0.004792
  13 H :    0.121829
  14 C :    0.079529
  15 C :   -0.287450
  16 C :    0.000156
  17 O :   -0.524869
  18 H :    0.153837
  19 O :   -0.530226
  20 H :    0.119241
  21 H :    0.171082
  22 H :    0.138873
  23 H :    0.133138
  24 H :    0.160386
Sum of atomic charges:   -0.0000000

LOEWDIN ATOMIC CHARGES
----------------------
   0 C :    0.186346
   1 C :   -0.234194
   2 C :   -0.218970
   3 C :   -0.028230
   4 O :   -0.306856
   5 H :    0.108661
   6 H :    0.122168
   7 H :    0.113642
   8 H :    0.116160
   9 H :    0.109600
  10 H :    0.106474
  11 H :    0.103487
  12 C :   -0.051267
  13 H :    0.091802
  14 C :    0.039407
  15 C :   -0.219931
  16 C :   -0.027146
  17 O :   -0.332315
  18 H :    0.111579
  19 O :   -0.332065
  20 H :    0.089152
  21 H :    0.132887
  22 H :    0.110639
  23 H :    0.097333
  24 H :    0.111639

  Mayer bond orders larger than 0.100000
B(  0-C ,  1-C ) :   0.9306 B(  0-C ,  4-O ) :   0.9214 B(  0-C ,  5-H ) :   0.9270
B(  0-C , 19-O ) :   0.8484 B(  1-C ,  2-C ) :   0.9486 B(  1-C ,  6-H ) :   0.9344
B(  1-C ,  7-H ) :   0.9243 B(  2-C ,  3-C ) :   0.9512 B(  2-C ,  8-H ) :   0.9453
B(  2-C ,  9-H ) :   0.9411 B(  3-C ,  4-O ) :   0.8426 B(  3-C , 10-H ) :   0.9345
B(  3-C , 11-H ) :   0.9394 B( 12-C , 13-H ) :   0.9098 B( 12-C , 14-C ) :   0.9062
B( 12-C , 17-O ) :   0.8698 B( 12-C , 18-H ) :   0.9276 B( 14-C , 15-C ) :   0.9532
B( 14-C , 19-O ) :   0.8427 B( 14-C , 20-H ) :   0.9102 B( 15-C , 16-C ) :   0.9471
B( 15-C , 21-H ) :   0.9349 B( 15-C , 22-H ) :   0.9411 B( 16-C , 17-O ) :   0.8519
B( 16-C , 23-H ) :   0.9336 B( 16-C , 24-H ) :   0.9357

FINAL SINGLE POINT ENERGY      -538.423275483223

DIPOLE MOMENT
-------------
                                X             Y             Z
Electronic contribution:     -0.59333      -4.42654      -0.60711
Nuclear contribution   :      0.95612       5.88723       0.86659
                        -----------------------------------------
Total Dipole Moment    :      0.36279       1.46069       0.25947
                        -----------------------------------------
Magnitude (a.u.)       :      1.52727
Magnitude (Debye)      :      3.88202

Rotational constants in cm-1:     0.084802     0.021055     0.020148
Rotational constants in MHz :  2542.311195   631.212327   604.031057

                             ****ORCA TERMINATED NORMALLY****
TOTAL RUN TIME: 0 days 0 hours 8 minutes 1 seconds 168 msec
