                         Program Version 4.2.1 -  RELEASE  -
|  1> # Test redundant internal optimization
|  2> #
|  3> ! RKS B3LYP  Opt TightSCF SmallPrint
|  4>
|  5> %basis
|  6>         Basis "6-31G"
|  7> end
|  8>
|  9> %geom
| 10> Constraints
| 11> { D 4  0  19  14  270.0   C } # D for Dihedral angle
| 12> { D 0  19  14  12  210.0   C } # D for Dihedral angle
| 13> { D 0  4  3  2   C } # D for Dihedral angle
| 14> { D 4  3  2  1   C } # D for Dihedral angle
| 15> { D 3  2  1  0   C } # D for Dihedral angle
| 16> { D 2  1  0  4   C } # D for Dihedral angle
| 17> { D 1  0  4  3   C } # D for Dihedral angle
| 18> { D 14  15  16  17   C } # D for Dihedral angle
| 19> { D 15  16  17  12   C } # D for Dihedral angle
| 20> { D 16  17  12  14   C } # D for Dihedral angle
| 21> { D 17  12  14  15   C } # D for Dihedral angle
| 22> { D 12  14  15  16   C } # D for Dihedral angle
| 23> end
| 24> end
| 25>
| 26>
| 27> #%pal
| 28> #nprocs 8
| 29> #end
| 30>
| 31> * xyz 0 1
| 32> C  -21.048   26.222   46.251
| 33> C  -20.361   27.558   45.944
| 34> C  -20.329   28.222   47.341
| 35> C  -20.110   27.022   48.296
| 36> O  -20.473   25.807   47.535
| 37> H  -20.833   25.428   45.533
| 38> H  -19.344   27.382   45.576
| 39> H  -20.898   28.157   45.201
| 40> H  -19.543   28.978   47.434
| 41> H  -21.289   28.710   47.548
| 42> H  -20.733   27.082   49.195
| 43> H  -19.064   26.913   48.597
| 44> C  -24.597   25.563   45.505
| 45> H  -25.294   24.712   45.550
| 46> C  -23.226   25.191   46.082
| 47> C  -22.592   24.410   44.908
| 48> C  -23.139   25.145   43.659
| 49> O  -24.316   25.921   44.110
| 50> H  -25.063   26.432   45.970
| 51> O  -22.472   26.381   46.366
| 52> H  -23.293   24.598   47.001
| 53> H  -21.498   24.404   44.943
| 54> H  -22.932   23.366   44.922
| 55> H  -23.448   24.455   42.866
| 56> H  -22.421   25.860   43.247
| 57> *
| 58>
| 59>                          ****END OF INPUT****
 Total Charge           Charge          ....    0
 Multiplicity           Mult            ....    1
 Number of Electrons    NEL             ....   86
FINAL SINGLE POINT ENERGY      -538.415782097837
FINAL SINGLE POINT ENERGY      -538.430192325185
FINAL SINGLE POINT ENERGY      -538.432030110899
FINAL SINGLE POINT ENERGY      -538.432418836120
FINAL SINGLE POINT ENERGY      -538.432452467986
FINAL SINGLE POINT ENERGY      -538.432459534330
                    ***********************HURRAY********************

CARTESIAN COORDINATES (ANGSTROEM)
---------------------------------
  C    -20.880005   26.229433   46.219966
  C    -20.383020   27.659062   45.994623
  C    -20.455556   28.249307   47.423518
  C    -20.081667   27.043853   48.316317
  O    -20.271288   25.836667   47.476041
  H    -20.550286   25.500866   45.479515
  H    -19.347927   27.630487   45.634790
  H    -21.000961   28.195844   45.272472
  H    -19.778467   29.097037   47.564350
  H    -21.476937   28.581096   47.630445
  H    -20.712461   26.959258   49.205165
  H    -19.030471   27.052223   48.620774
  C    -24.476071   25.713485   45.499434
  H    -25.296637   24.989433   45.608023
  C    -23.164930   25.135962   46.030947
  C    -22.722267   24.242381   44.860042
  C    -23.193036   25.025405   43.611030
  O    -24.205606   25.992703   44.085072
  H    -24.739903   26.655933   45.979357
  O    -22.312133   26.294574   46.315390
  H    -23.293117   24.563149   46.957354
  H    -21.656430   24.005026   44.847318
  H    -23.258388   23.290609   44.946593
  H    -23.641787   24.372625   42.853821
  H    -22.386648   25.602581   43.147643

 Multiplicity           Mult            ....    1
 Number of Electrons    NEL             ....   86
 Basis Dimension        Dim             ....  127

ORBITAL ENERGIES
----------------

  NO   OCC          E(Eh)            E(eV)
   0   2.0000     -19.140620      -520.8427
   1   2.0000     -19.133717      -520.6549
   2   2.0000     -19.130066      -520.5555
   3   2.0000     -10.276105      -279.6270
   4   2.0000     -10.241811      -278.6938
   5   2.0000     -10.225360      -278.2462
   6   2.0000     -10.221273      -278.1350
   7   2.0000     -10.220721      -278.1200
   8   2.0000     -10.192605      -277.3549
   9   2.0000     -10.180676      -277.0303
  10   2.0000     -10.180540      -277.0266
  11   2.0000      -1.049832       -28.5674
  12   2.0000      -1.014312       -27.6008
  13   2.0000      -0.986643       -26.8479
  14   2.0000      -0.791899       -21.5487
  15   2.0000      -0.775228       -21.0950
  16   2.0000      -0.746533       -20.3142
  17   2.0000      -0.717213       -19.5164
  18   2.0000      -0.615212       -16.7408
  19   2.0000      -0.601580       -16.3698
  20   2.0000      -0.592863       -16.1326
  21   2.0000      -0.565663       -15.3925
  22   2.0000      -0.528469       -14.3804
  23   2.0000      -0.500067       -13.6075
  24   2.0000      -0.484864       -13.1938
  25   2.0000      -0.477070       -12.9817
  26   2.0000      -0.456370       -12.4185
  27   2.0000      -0.435354       -11.8466
  28   2.0000      -0.428019       -11.6470
  29   2.0000      -0.419081       -11.4038
  30   2.0000      -0.399761       -10.8781
  31   2.0000      -0.386838       -10.5264
  32   2.0000      -0.374187       -10.1822
  33   2.0000      -0.366831        -9.9820
  34   2.0000      -0.360041        -9.7972
  35   2.0000      -0.351703        -9.5703
  36   2.0000      -0.341831        -9.3017
  37   2.0000      -0.320289        -8.7155
  38   2.0000      -0.303685        -8.2637
  39   2.0000      -0.295835        -8.0501
  40   2.0000      -0.266138        -7.2420
  41   2.0000      -0.245182        -6.6717
  42   2.0000      -0.237105        -6.4520
  43   0.0000       0.076314         2.0766
  44   0.0000       0.096212         2.6181
  45   0.0000       0.100831         2.7437
  46   0.0000       0.115156         3.1335
  47   0.0000       0.116231         3.1628

MULLIKEN ATOMIC CHARGES
-----------------------
   0 C :    0.285235
   1 C :   -0.255411
   2 C :   -0.296241
   3 C :   -0.001407
   4 O :   -0.512545
   5 H :    0.138655
   6 H :    0.140328
   7 H :    0.159971
   8 H :    0.138057
   9 H :    0.162390
  10 H :    0.145682
  11 H :    0.139431
  12 C :   -0.000379
  13 H :    0.123994
  14 C :    0.097492
  15 C :   -0.330799
  16 C :    0.003210
  17 O :   -0.519081
  18 H :    0.169832
  19 O :   -0.525443
  20 H :    0.143310
  21 H :    0.157759
  22 H :    0.153014
  23 H :    0.138449
  24 H :    0.144497
Sum of atomic charges:   -0.0000000

LOEWDIN ATOMIC CHARGES
----------------------
   0 C :    0.171593
   1 C :   -0.215781
   2 C :   -0.215577
   3 C :   -0.027703
   4 O :   -0.331752
   5 H :    0.095515
   6 H :    0.111142
   7 H :    0.125339
   8 H :    0.112173
   9 H :    0.119252
  10 H :    0.104431
  11 H :    0.100852
  12 C :   -0.034514
  13 H :    0.090754
  14 C :    0.045296
  15 C :   -0.240439
  16 C :   -0.030227
  17 O :   -0.329700
  18 H :    0.124138
  19 O :   -0.321898
  20 H :    0.103725
  21 H :    0.120711
  22 H :    0.120664
  23 H :    0.099819
  24 H :    0.102186

  Mayer bond orders larger than 0.100000
B(  0-C ,  1-C ) :   0.9458 B(  0-C ,  4-O ) :   0.9110 B(  0-C ,  5-H ) :   0.9114
B(  0-C , 19-O ) :   0.8626 B(  1-C ,  2-C ) :   0.9582 B(  1-C ,  6-H ) :   0.9408
B(  1-C ,  7-H ) :   0.9353 B(  2-C ,  3-C ) :   0.9543 B(  2-C ,  8-H ) :   0.9456
B(  2-C ,  9-H ) :   0.9440 B(  3-C ,  4-O ) :   0.8406 B(  3-C , 10-H ) :   0.9358
B(  3-C , 11-H ) :   0.9403 B( 12-C , 13-H ) :   0.9154 B( 12-C , 14-C ) :   0.9284
B( 12-C , 17-O ) :   0.8666 B( 12-C , 18-H ) :   0.9298 B( 14-C , 15-C ) :   0.9392
B( 14-C , 19-O ) :   0.8309 B( 14-C , 20-H ) :   0.9239 B( 15-C , 16-C ) :   0.9394
B( 15-C , 21-H ) :   0.9283 B( 15-C , 22-H ) :   0.9347 B( 16-C , 17-O ) :   0.8633
B( 16-C , 23-H ) :   0.9329 B( 16-C , 24-H ) :   0.9362

FINAL SINGLE POINT ENERGY      -538.432460299578

DIPOLE MOMENT
-------------
                                X             Y             Z
Electronic contribution:     -1.56815      -0.93724       0.10705
Nuclear contribution   :      1.95896       0.66921      -0.00866
                        -----------------------------------------
Total Dipole Moment    :      0.39082      -0.26803       0.09839
                        -----------------------------------------
Magnitude (a.u.)       :      0.48400
Magnitude (Debye)      :      1.23024

Rotational constants in cm-1:     0.082922     0.020472     0.019918
Rotational constants in MHz :  2485.940021   613.723829   597.136873

                             ****ORCA TERMINATED NORMALLY****
TOTAL RUN TIME: 0 days 0 hours 7 minutes 23 seconds 354 msec
