                         Program Version 4.2.1 -  RELEASE  -
|  1> # Test redundant internal optimization
|  2> #
|  3> ! RKS B3LYP  Opt TightSCF SmallPrint
|  4>
|  5> %basis
|  6>         Basis "6-31G"
|  7> end
|  8>
|  9> %geom
| 10> Constraints
| 11> { D 4  0  19  14  330.0   C } # D for Dihedral angle
| 12> { D 0  19  14  12  180.0   C } # D for Dihedral angle
| 13> { D 0  4  3  2   C } # D for Dihedral angle
| 14> { D 4  3  2  1   C } # D for Dihedral angle
| 15> { D 3  2  1  0   C } # D for Dihedral angle
| 16> { D 2  1  0  4   C } # D for Dihedral angle
| 17> { D 1  0  4  3   C } # D for Dihedral angle
| 18> { D 14  15  16  17   C } # D for Dihedral angle
| 19> { D 15  16  17  12   C } # D for Dihedral angle
| 20> { D 16  17  12  14   C } # D for Dihedral angle
| 21> { D 17  12  14  15   C } # D for Dihedral angle
| 22> { D 12  14  15  16   C } # D for Dihedral angle
| 23> end
| 24> end
| 25>
| 26>
| 27> #%pal
| 28> #nprocs 8
| 29> #end
| 30>
| 31> * xyz 0 1
| 32> C  -21.048   26.222   46.251
| 33> C  -20.361   27.558   45.944
| 34> C  -20.329   28.222   47.341
| 35> C  -20.110   27.022   48.296
| 36> O  -20.473   25.807   47.535
| 37> H  -20.833   25.428   45.533
| 38> H  -19.344   27.382   45.576
| 39> H  -20.898   28.157   45.201
| 40> H  -19.543   28.978   47.434
| 41> H  -21.289   28.710   47.548
| 42> H  -20.733   27.082   49.195
| 43> H  -19.064   26.913   48.597
| 44> C  -24.599   25.773   47.382
| 45> H  -25.049   25.358   48.297
| 46> C  -23.087   25.523   47.341
| 47> C  -23.025   24.047   46.886
| 48> C  -24.225   23.927   45.914
| 49> O  -25.112   25.077   46.197
| 50> H  -24.887   26.821   47.285
| 51> O  -22.472   26.381   46.366
| 52> H  -22.597   25.691   48.306
| 53> H  -22.074   23.788   46.410
| 54> H  -23.159   23.380   47.748
| 55> H  -24.788   22.997   46.052
| 56> H  -23.922   24.005   44.865
| 57> *
| 58>
| 59>                          ****END OF INPUT****
 Total Charge           Charge          ....    0
 Multiplicity           Mult            ....    1
 Number of Electrons    NEL             ....   86
FINAL SINGLE POINT ENERGY      -538.431578300021
FINAL SINGLE POINT ENERGY      -538.435115324625
FINAL SINGLE POINT ENERGY      -538.435434111051
FINAL SINGLE POINT ENERGY      -538.435487792595
FINAL SINGLE POINT ENERGY      -538.435497299020
FINAL SINGLE POINT ENERGY      -538.435499135270
                    ***********************HURRAY********************

CARTESIAN COORDINATES (ANGSTROEM)
---------------------------------
  C    -20.993715   26.219505   46.258313
  C    -20.425599   27.607340   45.960900
  C    -20.360057   28.228920   47.373448
  C    -20.000897   27.027594   48.275206
  O    -20.326763   25.811357   47.477552
  H    -20.758251   25.448411   45.518839
  H    -19.425636   27.502240   45.524972
  H    -21.059974   28.169385   45.272436
  H    -19.622847   29.034488   47.445072
  H    -21.340275   28.634433   47.641055
  H    -20.571804   27.001469   49.207587
  H    -18.933247   26.969771   48.505486
  C    -24.586013   25.810100   47.300931
  H    -25.102713   25.447314   48.201572
  C    -23.096938   25.472172   47.366896
  C    -23.095711   23.990348   46.950077
  C    -24.231445   23.911568   45.903642
  O    -25.063363   25.118567   46.102332
  H    -24.773834   26.875854   47.164274
  O    -22.431665   26.339481   46.397106
  H    -22.659687   25.622432   48.358304
  H    -22.127035   23.666533   46.561925
  H    -23.321400   23.373327   47.828129
  H    -24.855490   23.019319   46.027010
  H    -23.856642   23.947071   44.876936

 Multiplicity           Mult            ....    1
 Number of Electrons    NEL             ....   86
 Basis Dimension        Dim             ....  127

ORBITAL ENERGIES
----------------

  NO   OCC          E(Eh)            E(eV)
   0   2.0000     -19.148301      -521.0518
   1   2.0000     -19.139295      -520.8067
   2   2.0000     -19.122972      -520.3625
   3   2.0000     -10.278998      -279.7058
   4   2.0000     -10.234783      -278.5026
   5   2.0000     -10.231498      -278.4132
   6   2.0000     -10.217549      -278.0336
   7   2.0000     -10.216133      -277.9951
   8   2.0000     -10.188962      -277.2558
   9   2.0000     -10.186241      -277.1817
  10   2.0000     -10.180635      -277.0292
  11   2.0000      -1.056066       -28.7370
  12   2.0000      -1.010860       -27.5069
  13   2.0000      -0.987343       -26.8670
  14   2.0000      -0.793819       -21.6009
  15   2.0000      -0.774670       -21.0798
  16   2.0000      -0.741657       -20.1815
  17   2.0000      -0.719225       -19.5711
  18   2.0000      -0.612819       -16.6757
  19   2.0000      -0.602139       -16.3850
  20   2.0000      -0.592544       -16.1239
  21   2.0000      -0.562384       -15.3032
  22   2.0000      -0.526046       -14.3144
  23   2.0000      -0.496398       -13.5077
  24   2.0000      -0.489610       -13.3230
  25   2.0000      -0.479012       -13.0346
  26   2.0000      -0.454243       -12.3606
  27   2.0000      -0.438898       -11.9430
  28   2.0000      -0.422317       -11.4918
  29   2.0000      -0.413466       -11.2510
  30   2.0000      -0.407370       -11.0851
  31   2.0000      -0.385031       -10.4772
  32   2.0000      -0.370263       -10.0754
  33   2.0000      -0.361513        -9.8373
  34   2.0000      -0.360012        -9.7964
  35   2.0000      -0.357775        -9.7356
  36   2.0000      -0.344551        -9.3757
  37   2.0000      -0.332442        -9.0462
  38   2.0000      -0.304675        -8.2906
  39   2.0000      -0.291587        -7.9345
  40   2.0000      -0.262973        -7.1559
  41   2.0000      -0.256618        -6.9829
  42   2.0000      -0.229479        -6.2444
  43   0.0000       0.073236         1.9929
  44   0.0000       0.097918         2.6645
  45   0.0000       0.100329         2.7301
  46   0.0000       0.107010         2.9119
  47   0.0000       0.116839         3.1794

MULLIKEN ATOMIC CHARGES
-----------------------
   0 C :    0.297246
   1 C :   -0.260038
   2 C :   -0.299537
   3 C :   -0.014486
   4 O :   -0.517330
   5 H :    0.147943
   6 H :    0.144038
   7 H :    0.164733
   8 H :    0.144678
   9 H :    0.158465
  10 H :    0.143637
  11 H :    0.148781
  12 C :    0.002046
  13 H :    0.121625
  14 C :    0.084209
  15 C :   -0.304601
  16 C :    0.006520
  17 O :   -0.521005
  18 H :    0.163139
  19 O :   -0.529208
  20 H :    0.138755
  21 H :    0.159317
  22 H :    0.142168
  23 H :    0.132912
  24 H :    0.145995
Sum of atomic charges:   -0.0000000

LOEWDIN ATOMIC CHARGES
----------------------
   0 C :    0.176508
   1 C :   -0.214275
   2 C :   -0.216969
   3 C :   -0.031013
   4 O :   -0.328188
   5 H :    0.096749
   6 H :    0.113508
   7 H :    0.128201
   8 H :    0.115712
   9 H :    0.117224
  10 H :    0.101941
  11 H :    0.105837
  12 C :   -0.033796
  13 H :    0.090131
  14 C :    0.039857
  15 C :   -0.235018
  16 C :   -0.028765
  17 O :   -0.330531
  18 H :    0.120719
  19 O :   -0.329092
  20 H :    0.101990
  21 H :    0.123350
  22 H :    0.114255
  23 H :    0.097360
  24 H :    0.104307

  Mayer bond orders larger than 0.100000
B(  0-C ,  1-C ) :   0.9457 B(  0-C ,  4-O ) :   0.8935 B(  0-C ,  5-H ) :   0.9216
B(  0-C , 19-O ) :   0.8508 B(  1-C ,  2-C ) :   0.9535 B(  1-C ,  6-H ) :   0.9378
B(  1-C ,  7-H ) :   0.9348 B(  2-C ,  3-C ) :   0.9547 B(  2-C ,  8-H ) :   0.9447
B(  2-C ,  9-H ) :   0.9449 B(  3-C ,  4-O ) :   0.8331 B(  3-C , 10-H ) :   0.9339
B(  3-C , 11-H ) :   0.9405 B( 12-C , 13-H ) :   0.9168 B( 12-C , 14-C ) :   0.9337
B( 12-C , 17-O ) :   0.8709 B( 12-C , 18-H ) :   0.9307 B( 14-C , 15-C ) :   0.9320
B( 14-C , 19-O ) :   0.8246 B( 14-C , 20-H ) :   0.9193 B( 15-C , 16-C ) :   0.9416
B( 15-C , 21-H ) :   0.9368 B( 15-C , 22-H ) :   0.9378 B( 16-C , 17-O ) :   0.8593
B( 16-C , 23-H ) :   0.9335 B( 16-C , 24-H ) :   0.9375

FINAL SINGLE POINT ENERGY      -538.435499323012

DIPOLE MOMENT
-------------
                                X             Y             Z
Electronic contribution:     -1.90770      -1.05487      -1.42719
Nuclear contribution   :      2.84279       1.30348       2.07343
                        -----------------------------------------
Total Dipole Moment    :      0.93509       0.24860       0.64624
                        -----------------------------------------
Magnitude (a.u.)       :      1.16354
Magnitude (Debye)      :      2.95748

Rotational constants in cm-1:     0.084979     0.021016     0.020325
Rotational constants in MHz :  2547.618498   630.038662   609.325409

                             ****ORCA TERMINATED NORMALLY****
TOTAL RUN TIME: 0 days 0 hours 6 minutes 40 seconds 667 msec
