                         Program Version 4.2.0 -  RELEASE  -
|  1> # Test redundant internal optimization
|  2> #
|  3> ! RKS B3LYP  Opt TightSCF SmallPrint
|  4>
|  5> %basis
|  6>         Basis "6-31G"
|  7> end
|  8>
|  9> %geom
| 10> Constraints
| 11> { D 4  0  15  12  345.0   C } # D for Dihedral angle
| 12> { D 0  15  12  16  240.0   C } # D for Dihedral angle
| 13> { D 0  4  3  2   C } # D for Dihedral angle
| 14> { D 4  3  2  1   C } # D for Dihedral angle
| 15> { D 3  2  1  0   C } # D for Dihedral angle
| 16> { D 2  1  0  4   C } # D for Dihedral angle
| 17> { D 1  0  4  3   C } # D for Dihedral angle
| 18> { D 16  20  19  18   C } # D for Dihedral angle
| 19> { D 20  19  18  17   C } # D for Dihedral angle
| 20> { D 19  18  17  16   C } # D for Dihedral angle
| 21> { D 18  17  16  20   C } # D for Dihedral angle
| 22> { D 17  16  20  19   C } # D for Dihedral angle
| 23> { D 15  12  16  20   C } # D for Dihedral angle
| 24> end
| 25> end
| 26>
| 27>
| 28> #%pal
| 29> #nprocs 8
| 30> #end
| 31>
| 32> * xyz 0 1
| 33> C  -21.048   26.222   46.251
| 34> C  -20.361   27.558   45.944
| 35> C  -20.329   28.222   47.341
| 36> C  -20.110   27.022   48.296
| 37> O  -20.473   25.807   47.535
| 38> H  -20.833   25.428   45.533
| 39> H  -19.344   27.382   45.576
| 40> H  -20.898   28.157   45.201
| 41> H  -19.543   28.978   47.434
| 42> H  -21.289   28.710   47.548
| 43> H  -20.733   27.082   49.195
| 44> H  -19.064   26.913   48.597
| 45> C  -23.221   25.764   47.645
| 46> H  -22.433   25.301   48.252
| 47> H  -23.712   26.536   48.252
| 48> O  -22.586   26.394   46.375
| 49> C  -24.281   24.679   47.311
| 50> C  -24.968   24.163   48.581
| 51> C  -25.988   25.291   48.867
| 52> C  -26.412   25.749   47.449
| 53> O  -25.373   25.256   46.520
| 54> H  -23.818   23.902   46.700
| 55> H  -25.484   23.219   48.373
| 56> O  -23.981   23.932   49.757
| 57> H  -26.838   24.953   49.468
| 58> H  -25.500   26.111   49.408
| 59> H  -26.480   26.840   47.363
| 60> H  -27.362   25.308   47.134
| 61> H  -23.452   24.864   49.985
| 62> *
| 63>
| 64>                          ****END OF INPUT****
 Total Charge           Charge          ....    0
 Multiplicity           Mult            ....    1
 Number of Electrons    NEL             ....  102
FINAL SINGLE POINT ENERGY      -652.827444618446
FINAL SINGLE POINT ENERGY      -652.850307801724
FINAL SINGLE POINT ENERGY      -652.854617505031
FINAL SINGLE POINT ENERGY      -652.855310561230
FINAL SINGLE POINT ENERGY      -652.855429074711
FINAL SINGLE POINT ENERGY      -652.855452430694
FINAL SINGLE POINT ENERGY      -652.855454923465
                    ***********************HURRAY********************

CARTESIAN COORDINATES (ANGSTROEM)
---------------------------------
  C    -21.085043   26.186704   46.331622
  C    -20.487763   27.538766   45.942990
  C    -20.322074   28.217450   47.321015
  C    -19.954251   27.043341   48.253504
  O    -20.366737   25.807757   47.526856
  H    -20.921579   25.379600   45.613097
  H    -19.517096   27.380889   45.458666
  H    -21.141603   28.091848   45.265773
  H    -19.555172   28.998195   47.317233
  H    -21.270681   28.671698   47.624051
  H    -20.472285   27.074355   49.216021
  H    -18.878312   26.953385   48.426871
  C    -23.145844   25.816938   47.723943
  H    -22.386548   25.351018   48.361370
  H    -23.595818   26.666739   48.254323
  O    -22.524166   26.347884   46.520183
  C    -24.206740   24.779642   47.355748
  C    -24.950606   24.195512   48.569857
  C    -26.043549   25.276899   48.827324
  C    -26.392322   25.752216   47.399537
  O    -25.272574   25.330026   46.522404
  H    -23.730475   23.999885   46.753944
  H    -25.413225   23.246831   48.289849
  O    -24.126716   23.870998   49.715552
  H    -26.905477   24.874027   49.365737
  H    -25.619330   26.090427   49.431386
  H    -26.511747   26.838138   47.328711
  H    -27.298183   25.273741   47.015909
  H    -23.818083   24.688091   50.157526

 Multiplicity           Mult            ....    1
 Number of Electrons    NEL             ....  102
 Basis Dimension        Dim             ....  149

ORBITAL ENERGIES
----------------

  NO   OCC          E(Eh)            E(eV)
   0   2.0000     -19.151290      -521.1331
   1   2.0000     -19.146504      -521.0029
   2   2.0000     -19.133971      -520.6618
   3   2.0000     -19.131254      -520.5879
   4   2.0000     -10.277281      -279.6590
   5   2.0000     -10.241179      -278.6766
   6   2.0000     -10.233312      -278.4626
   7   2.0000     -10.226105      -278.2665
   8   2.0000     -10.224474      -278.2221
   9   2.0000     -10.223048      -278.1833
  10   2.0000     -10.192217      -277.3443
  11   2.0000     -10.190126      -277.2874
  12   2.0000     -10.184275      -277.1282
  13   2.0000      -1.053930       -28.6789
  14   2.0000      -1.029878       -28.0244
  15   2.0000      -1.011223       -27.5168
  16   2.0000      -0.988687       -26.9035
  17   2.0000      -0.791124       -21.5276
  18   2.0000      -0.778317       -21.1791
  19   2.0000      -0.764571       -20.8050
  20   2.0000      -0.732588       -19.9347
  21   2.0000      -0.676003       -18.3950
  22   2.0000      -0.607451       -16.5296
  23   2.0000      -0.603605       -16.4249
  24   2.0000      -0.594419       -16.1750
  25   2.0000      -0.565373       -15.3846
  26   2.0000      -0.526264       -14.3204
  27   2.0000      -0.507435       -13.8080
  28   2.0000      -0.497836       -13.5468
  29   2.0000      -0.497181       -13.5290
  30   2.0000      -0.469120       -12.7654
  31   2.0000      -0.456041       -12.4095
  32   2.0000      -0.443814       -12.0768
  33   2.0000      -0.427677       -11.6377
  34   2.0000      -0.422633       -11.5004
  35   2.0000      -0.414254       -11.2724
  36   2.0000      -0.411132       -11.1875
  37   2.0000      -0.396707       -10.7950
  38   2.0000      -0.373830       -10.1724
  39   2.0000      -0.370499       -10.0818
  40   2.0000      -0.360228        -9.8023
  41   2.0000      -0.350250        -9.5308
  42   2.0000      -0.348739        -9.4897
  43   2.0000      -0.337171        -9.1749
  44   2.0000      -0.325326        -8.8526
  45   2.0000      -0.310386        -8.4460
  46   2.0000      -0.297198        -8.0872
  47   2.0000      -0.268402        -7.3036
  48   2.0000      -0.264605        -7.2003
  49   2.0000      -0.255493        -6.9523
  50   2.0000      -0.229845        -6.2544
  51   0.0000       0.052249         1.4218
  52   0.0000       0.076871         2.0918
  53   0.0000       0.089067         2.4236
  54   0.0000       0.094620         2.5747
  55   0.0000       0.108151         2.9429

MULLIKEN ATOMIC CHARGES
-----------------------
   0 C :    0.295463
   1 C :   -0.256651
   2 C :   -0.305939
   3 C :   -0.013574
   4 O :   -0.512287
   5 H :    0.156041
   6 H :    0.143209
   7 H :    0.165904
   8 H :    0.146506
   9 H :    0.156731
  10 H :    0.138683
  11 H :    0.152518
  12 C :   -0.030759
  13 H :    0.165752
  14 H :    0.119636
  15 O :   -0.523830
  16 C :    0.097606
  17 C :    0.084371
  18 C :   -0.326258
  19 C :   -0.005879
  20 O :   -0.505710
  21 H :    0.157823
  22 H :    0.165929
  23 O :   -0.598224
  24 H :    0.157095
  25 H :    0.132642
  26 H :    0.143542
  27 H :    0.145391
  28 H :    0.354267
Sum of atomic charges:    0.0000000

LOEWDIN ATOMIC CHARGES
----------------------
   0 C :    0.181668
   1 C :   -0.217656
   2 C :   -0.218659
   3 C :   -0.031497
   4 O :   -0.319720
   5 H :    0.103082
   6 H :    0.112986
   7 H :    0.128572
   8 H :    0.116763
   9 H :    0.115932
  10 H :    0.100223
  11 H :    0.107885
  12 C :   -0.058130
  13 H :    0.116531
  14 H :    0.091329
  15 O :   -0.329700
  16 C :    0.015898
  17 C :    0.034200
  18 C :   -0.242599
  19 C :   -0.029751
  20 O :   -0.315387
  21 H :    0.117025
  22 H :    0.119089
  23 O :   -0.406589
  24 H :    0.121983
  25 H :    0.103126
  26 H :    0.102543
  27 H :    0.104395
  28 H :    0.276457

  Mayer bond orders larger than 0.100000
B(  0-C ,  1-C ) :   0.9365 B(  0-C ,  4-O ) :   0.9025 B(  0-C ,  5-H ) :   0.9254
B(  0-C , 15-O ) :   0.8515 B(  1-C ,  2-C ) :   0.9530 B(  1-C ,  6-H ) :   0.9363
B(  1-C ,  7-H ) :   0.9348 B(  2-C ,  3-C ) :   0.9548 B(  2-C ,  8-H ) :   0.9448
B(  2-C ,  9-H ) :   0.9454 B(  3-C ,  4-O ) :   0.8295 B(  3-C , 10-H ) :   0.9355
B(  3-C , 11-H ) :   0.9405 B( 12-C , 13-H ) :   0.8883 B( 12-C , 14-H ) :   0.9309
B( 12-C , 15-O ) :   0.8463 B( 12-C , 16-C ) :   0.9014 B( 16-C , 17-C ) :   0.8711
B( 16-C , 20-O ) :   0.8671 B( 16-C , 21-H ) :   0.9322 B( 17-C , 18-C ) :   0.9220
B( 17-C , 22-H ) :   0.9335 B( 17-C , 23-O ) :   0.8973 B( 18-C , 19-C ) :   0.9396
B( 18-C , 24-H ) :   0.9422 B( 18-C , 25-H ) :   0.9413 B( 19-C , 20-O ) :   0.8534
B( 19-C , 26-H ) :   0.9315 B( 19-C , 27-H ) :   0.9381 B( 23-O , 28-H ) :   0.7983

FINAL SINGLE POINT ENERGY      -652.855455046817

DIPOLE MOMENT
-------------
                                X             Y             Z
Electronic contribution:     -0.65142      -4.48388      -1.96272
Nuclear contribution   :      0.79835       5.63916       2.74965
                        -----------------------------------------
Total Dipole Moment    :      0.14693       1.15529       0.78693
                        -----------------------------------------
Magnitude (a.u.)       :      1.40554
Magnitude (Debye)      :      3.57259

Rotational constants in cm-1:     0.052146     0.013489     0.012091
Rotational constants in MHz :  1563.307523   404.395836   362.469103

                             ****ORCA TERMINATED NORMALLY****
TOTAL RUN TIME: 0 days 1 hours 5 minutes 28 seconds 25 msec
