                         Program Version 4.2.0 -  RELEASE  -
|  1> # Test redundant internal optimization
|  2> #
|  3> ! RKS B3LYP  Opt TightSCF SmallPrint
|  4>
|  5> %basis
|  6>         Basis "6-31G"
|  7> end
|  8>
|  9> %geom
| 10> Constraints
| 11> { D 4  0  15  12  300.0   C } # D for Dihedral angle
| 12> { D 0  15  12  16  300.0   C } # D for Dihedral angle
| 13> { D 0  4  3  2   C } # D for Dihedral angle
| 14> { D 4  3  2  1   C } # D for Dihedral angle
| 15> { D 3  2  1  0   C } # D for Dihedral angle
| 16> { D 2  1  0  4   C } # D for Dihedral angle
| 17> { D 1  0  4  3   C } # D for Dihedral angle
| 18> { D 16  20  19  18   C } # D for Dihedral angle
| 19> { D 20  19  18  17   C } # D for Dihedral angle
| 20> { D 19  18  17  16   C } # D for Dihedral angle
| 21> { D 18  17  16  20   C } # D for Dihedral angle
| 22> { D 17  16  20  19   C } # D for Dihedral angle
| 23> { D 15  12  16  20   C } # D for Dihedral angle
| 24> end
| 25> end
| 26>
| 27>
| 28> #%pal
| 29> #nprocs 8
| 30> #end
| 31>
| 32> * xyz 0 1
| 33> C  -21.048   26.222   46.251
| 34> C  -20.361   27.558   45.944
| 35> C  -20.329   28.222   47.341
| 36> C  -20.110   27.022   48.296
| 37> O  -20.473   25.807   47.535
| 38> H  -20.833   25.428   45.533
| 39> H  -19.344   27.382   45.576
| 40> H  -20.898   28.157   45.201
| 41> H  -19.543   28.978   47.434
| 42> H  -21.289   28.710   47.548
| 43> H  -20.733   27.082   49.195
| 44> H  -19.064   26.913   48.597
| 45> C  -23.362   25.116   46.798
| 46> H  -23.008   24.788   47.783
| 47> H  -24.436   25.326   46.871
| 48> O  -22.586   26.394   46.375
| 49> C  -23.177   23.943   45.796
| 50> C  -24.045   22.740   46.182
| 51> C  -25.434   23.174   45.655
| 52> C  -25.090   23.964   44.367
| 53> O  -23.659   24.324   44.465
| 54> H  -22.112   23.719   45.699
| 55> O  -23.551   21.467   45.442
| 56> H  -24.044   22.536   47.258
| 57> H  -26.098   22.326   45.460
| 58> H  -25.927   23.824   46.387
| 59> H  -25.684   24.879   44.266
| 60> H  -25.210   23.361   43.463
| 61> H  -23.545   21.648   44.361
| 62> *
| 63>
| 64>                          ****END OF INPUT****
 Total Charge           Charge          ....    0
 Multiplicity           Mult            ....    1
 Number of Electrons    NEL             ....  102
FINAL SINGLE POINT ENERGY      -652.836279213074
FINAL SINGLE POINT ENERGY      -652.860143464322
FINAL SINGLE POINT ENERGY      -652.864768634214
FINAL SINGLE POINT ENERGY      -652.865579937632
FINAL SINGLE POINT ENERGY      -652.865700837046
FINAL SINGLE POINT ENERGY      -652.865714778569
                    ***********************HURRAY********************

CARTESIAN COORDINATES (ANGSTROEM)
---------------------------------
  C    -21.056884   26.162959   46.212128
  C    -20.458972   27.546196   45.952375
  C    -20.433629   28.150042   47.374414
  C    -20.122925   26.930539   48.270816
  O    -20.436851   25.731153   47.450234
  H    -20.821828   25.400421   45.466481
  H    -19.445780   27.431215   45.551118
  H    -21.059704   28.124164   45.247393
  H    -19.687323   28.943258   47.482436
  H    -21.417409   28.563816   47.613244
  H    -20.724922   26.903421   49.182785
  H    -19.064095   26.856702   48.536245
  C    -23.255289   25.170698   46.743262
  H    -22.930655   24.840218   47.739186
  H    -24.279594   25.545071   46.806216
  O    -22.480583   26.340355   46.349615
  C    -23.162152   23.985543   45.779038
  C    -24.043711   22.800048   46.200550
  C    -25.432135   23.229166   45.653546
  C    -25.074463   23.974641   44.342609
  O    -23.637841   24.326609   44.434857
  H    -22.123865   23.660036   45.670179
  O    -23.582698   21.565901   45.585290
  H    -24.041217   22.604544   47.273712
  H    -26.067507   22.355501   45.488931
  H    -25.935592   23.891497   46.366630
  H    -25.657159   24.890001   44.203746
  H    -25.196677   23.344840   43.455903
  H    -23.361537   21.741447   44.646061

 Multiplicity           Mult            ....    1
 Number of Electrons    NEL             ....  102
 Basis Dimension        Dim             ....  149

ORBITAL ENERGIES
----------------

  NO   OCC          E(Eh)            E(eV)
   0   2.0000     -19.142135      -520.8840
   1   2.0000     -19.141135      -520.8568
   2   2.0000     -19.139419      -520.8101
   3   2.0000     -19.138743      -520.7917
   4   2.0000     -10.273506      -279.5563
   5   2.0000     -10.243989      -278.7531
   6   2.0000     -10.234151      -278.4854
   7   2.0000     -10.231554      -278.4147
   8   2.0000     -10.227964      -278.3170
   9   2.0000     -10.223710      -278.2013
  10   2.0000     -10.191115      -277.3143
  11   2.0000     -10.182245      -277.0730
  12   2.0000     -10.181199      -277.0445
  13   2.0000      -1.052432       -28.6381
  14   2.0000      -1.036520       -28.2051
  15   2.0000      -1.006705       -27.3938
  16   2.0000      -0.989726       -26.9318
  17   2.0000      -0.789262       -21.4769
  18   2.0000      -0.780951       -21.2508
  19   2.0000      -0.764615       -20.8062
  20   2.0000      -0.731924       -19.9167
  21   2.0000      -0.672115       -18.2892
  22   2.0000      -0.606318       -16.4988
  23   2.0000      -0.604459       -16.4482
  24   2.0000      -0.595260       -16.1979
  25   2.0000      -0.567368       -15.4389
  26   2.0000      -0.527431       -14.3521
  27   2.0000      -0.510252       -13.8847
  28   2.0000      -0.493027       -13.4159
  29   2.0000      -0.487595       -13.2681
  30   2.0000      -0.473756       -12.8916
  31   2.0000      -0.457223       -12.4417
  32   2.0000      -0.450581       -12.2609
  33   2.0000      -0.438033       -11.9195
  34   2.0000      -0.426148       -11.5961
  35   2.0000      -0.403633       -10.9834
  36   2.0000      -0.400564       -10.8999
  37   2.0000      -0.394086       -10.7236
  38   2.0000      -0.376315       -10.2401
  39   2.0000      -0.367421        -9.9980
  40   2.0000      -0.359788        -9.7903
  41   2.0000      -0.353673        -9.6239
  42   2.0000      -0.344625        -9.3777
  43   2.0000      -0.333104        -9.0642
  44   2.0000      -0.328056        -8.9269
  45   2.0000      -0.308808        -8.4031
  46   2.0000      -0.294974        -8.0266
  47   2.0000      -0.275353        -7.4927
  48   2.0000      -0.268425        -7.3042
  49   2.0000      -0.251853        -6.8533
  50   2.0000      -0.239838        -6.5263
  51   0.0000       0.066410         1.8071
  52   0.0000       0.088376         2.4048
  53   0.0000       0.089529         2.4362
  54   0.0000       0.096604         2.6287
  55   0.0000       0.103076         2.8048

MULLIKEN ATOMIC CHARGES
-----------------------
   0 C :    0.278502
   1 C :   -0.260673
   2 C :   -0.298548
   3 C :   -0.004484
   4 O :   -0.518652
   5 H :    0.156270
   6 H :    0.144234
   7 H :    0.161922
   8 H :    0.140096
   9 H :    0.161554
  10 H :    0.144080
  11 H :    0.143142
  12 C :    0.009107
  13 H :    0.143000
  14 H :    0.146362
  15 O :   -0.514204
  16 C :    0.037826
  17 C :    0.073619
  18 C :   -0.303721
  19 C :   -0.024491
  20 O :   -0.517313
  21 H :    0.172971
  22 O :   -0.599423
  23 H :    0.156706
  24 H :    0.165956
  25 H :    0.146157
  26 H :    0.150723
  27 H :    0.144696
  28 H :    0.364584
Sum of atomic charges:   -0.0000000

LOEWDIN ATOMIC CHARGES
----------------------
   0 C :    0.170052
   1 C :   -0.212638
   2 C :   -0.216436
   3 C :   -0.028156
   4 O :   -0.334481
   5 H :    0.100187
   6 H :    0.113531
   7 H :    0.126937
   8 H :    0.112895
   9 H :    0.118800
  10 H :    0.103552
  11 H :    0.102849
  12 C :   -0.042726
  13 H :    0.104669
  14 H :    0.111621
  15 O :   -0.316202
  16 C :    0.001582
  17 C :    0.036710
  18 C :   -0.243075
  19 C :   -0.036386
  20 O :   -0.328356
  21 H :    0.117841
  22 O :   -0.413077
  23 H :    0.117567
  24 H :    0.127715
  25 H :    0.113532
  26 H :    0.106398
  27 H :    0.102050
  28 H :    0.283043

  Mayer bond orders larger than 0.100000
B(  0-C ,  1-C ) :   0.9505 B(  0-C ,  4-O ) :   0.8911 B(  0-C ,  5-H ) :   0.9125
B(  0-C , 15-O ) :   0.8656 B(  1-C ,  2-C ) :   0.9551 B(  1-C ,  6-H ) :   0.9409
B(  1-C ,  7-H ) :   0.9352 B(  2-C ,  3-C ) :   0.9558 B(  2-C ,  8-H ) :   0.9453
B(  2-C ,  9-H ) :   0.9444 B(  3-C ,  4-O ) :   0.8369 B(  3-C , 10-H ) :   0.9362
B(  3-C , 11-H ) :   0.9406 B( 12-C , 13-H ) :   0.9086 B( 12-C , 14-H ) :   0.9405
B( 12-C , 15-O ) :   0.8563 B( 12-C , 16-C ) :   0.8822 B( 16-C , 17-C ) :   0.8972
B( 16-C , 20-O ) :   0.8564 B( 16-C , 21-H ) :   0.9178 B( 17-C , 18-C ) :   0.9135
B( 17-C , 22-O ) :   0.8931 B( 17-C , 23-H ) :   0.9318 B( 18-C , 19-C ) :   0.9404
B( 18-C , 24-H ) :   0.9368 B( 18-C , 25-H ) :   0.9335 B( 19-C , 20-O ) :   0.8495
B( 19-C , 26-H ) :   0.9339 B( 19-C , 27-H ) :   0.9383 B( 22-O , 28-H ) :   0.7942

FINAL SINGLE POINT ENERGY      -652.865716745822

DIPOLE MOMENT
-------------
                                X             Y             Z
Electronic contribution:      0.46712      -3.47230      -1.70817
Nuclear contribution   :     -0.86205       4.11097       1.85221
                        -----------------------------------------
Total Dipole Moment    :     -0.39493       0.63867       0.14403
                        -----------------------------------------
Magnitude (a.u.)       :      0.76460
Magnitude (Debye)      :      1.94346

Rotational constants in cm-1:     0.064541     0.012309     0.011554
Rotational constants in MHz :  1934.881967   369.024803   346.371755

                             ****ORCA TERMINATED NORMALLY****
TOTAL RUN TIME: 0 days 0 hours 21 minutes 8 seconds 285 msec
