                         Program Version 4.2.0 -  RELEASE  -
|  1> # Test redundant internal optimization
|  2> #
|  3> ! RKS B3LYP  Opt TightSCF SmallPrint
|  4>
|  5> %basis
|  6>         Basis "6-31G"
|  7> end
|  8>
|  9> %geom
| 10> Constraints
| 11> { D 4  0  15  12  105.0   C } # D for Dihedral angle
| 12> { D 0  15  12  16  195.0   C } # D for Dihedral angle
| 13> { D 0  4  3  2   C } # D for Dihedral angle
| 14> { D 4  3  2  1   C } # D for Dihedral angle
| 15> { D 3  2  1  0   C } # D for Dihedral angle
| 16> { D 2  1  0  4   C } # D for Dihedral angle
| 17> { D 1  0  4  3   C } # D for Dihedral angle
| 18> { D 16  20  19  18   C } # D for Dihedral angle
| 19> { D 20  19  18  17   C } # D for Dihedral angle
| 20> { D 19  18  17  16   C } # D for Dihedral angle
| 21> { D 18  17  16  20   C } # D for Dihedral angle
| 22> { D 17  16  20  19   C } # D for Dihedral angle
| 23> { D 15  12  16  20   C } # D for Dihedral angle
| 24> end
| 25> end
| 26>
| 27>
| 28> #%pal
| 29> #nprocs 8
| 30> #end
| 31>
| 32> * xyz 0 1
| 33> C  -21.048   26.222   46.251
| 34> C  -20.361   27.558   45.944
| 35> C  -20.329   28.222   47.341
| 36> C  -20.110   27.022   48.296
| 37> O  -20.473   25.807   47.535
| 38> H  -20.833   25.428   45.533
| 39> H  -19.344   27.382   45.576
| 40> H  -20.898   28.157   45.201
| 41> H  -19.543   28.978   47.434
| 42> H  -21.289   28.710   47.548
| 43> H  -20.733   27.082   49.195
| 44> H  -19.064   26.913   48.597
| 45> C  -23.085   27.864   46.420
| 46> H  -22.446   28.443   47.099
| 47> H  -23.027   28.320   45.423
| 48> O  -22.586   26.394   46.375
| 49> C  -24.554   27.986   46.911
| 50> C  -25.498   27.127   46.060
| 51> C  -25.255   25.717   46.649
| 52> C  -25.018   26.000   48.153
| 53> O  -24.689   27.438   48.264
| 54> H  -24.828   29.041   46.963
| 55> O  -26.969   27.570   46.286
| 56> H  -25.281   27.182   44.987
| 57> H  -26.095   25.036   46.480
| 58> H  -24.363   25.268   46.196
| 59> H  -24.194   25.410   48.567
| 60> H  -25.914   25.828   48.757
| 61> H  -27.208   27.522   47.354
| 62> *
| 63>
| 64>                          ****END OF INPUT****
 Total Charge           Charge          ....    0
 Multiplicity           Mult            ....    1
 Number of Electrons    NEL             ....  102
FINAL SINGLE POINT ENERGY      -652.810784441875
FINAL SINGLE POINT ENERGY      -652.838816391865
FINAL SINGLE POINT ENERGY      -652.853398143561
FINAL SINGLE POINT ENERGY      -652.855941349237
FINAL SINGLE POINT ENERGY      -652.856287311586
FINAL SINGLE POINT ENERGY      -652.856336628873
FINAL SINGLE POINT ENERGY      -652.856341141779
                    ***********************HURRAY********************

CARTESIAN COORDINATES (ANGSTROEM)
---------------------------------
  C    -21.191813   26.392275   46.379751
  C    -20.259652   27.533479   45.951526
  C    -19.999078   28.265891   47.300706
  C    -19.979810   27.095647   48.316224
  O    -20.641613   25.954338   47.639152
  H    -21.134591   25.517744   45.729117
  H    -19.333412   27.095047   45.567570
  H    -20.681660   28.180487   45.176991
  H    -19.051034   28.813024   47.293084
  H    -20.790075   28.983733   47.528760
  H    -20.517776   27.320622   49.241060
  H    -18.964119   26.771737   48.560050
  C    -23.191461   27.985870   46.474771
  H    -22.677439   28.625651   47.198771
  H    -23.132091   28.457025   45.482588
  O    -22.613765   26.653673   46.448392
  C    -24.652140   27.898479   46.919426
  C    -25.595707   27.050693   46.052703
  C    -25.333850   25.623110   46.602766
  C    -25.087728   25.871065   48.111168
  O    -24.771208   27.314533   48.252618
  H    -25.033129   28.925256   46.985323
  O    -26.975864   27.475691   46.237612
  H    -25.410705   27.142676   44.981663
  H    -26.192635   24.972442   46.411840
  H    -24.441927   25.208471   46.132573
  H    -24.242347   25.294107   48.492931
  H    -25.971433   25.676084   48.728004
  H    -27.166939   27.528151   47.197860

 Multiplicity           Mult            ....    1
 Number of Electrons    NEL             ....  102
 Basis Dimension        Dim             ....  149

ORBITAL ENERGIES
----------------

  NO   OCC          E(Eh)            E(eV)
   0   2.0000     -19.147249      -521.0231
   1   2.0000     -19.141480      -520.8661
   2   2.0000     -19.133808      -520.6574
   3   2.0000     -19.132094      -520.6108
   4   2.0000     -10.283769      -279.8356
   5   2.0000     -10.236726      -278.5555
   6   2.0000     -10.233185      -278.4591
   7   2.0000     -10.232608      -278.4434
   8   2.0000     -10.229249      -278.3520
   9   2.0000     -10.216430      -278.0032
  10   2.0000     -10.198554      -277.5168
  11   2.0000     -10.196702      -277.4664
  12   2.0000     -10.170657      -276.7577
  13   2.0000      -1.054113       -28.6839
  14   2.0000      -1.029045       -28.0017
  15   2.0000      -1.002714       -27.2852
  16   2.0000      -0.994012       -27.0484
  17   2.0000      -0.792942       -21.5770
  18   2.0000      -0.779145       -21.2016
  19   2.0000      -0.761165       -20.7124
  20   2.0000      -0.734277       -19.9807
  21   2.0000      -0.677946       -18.4478
  22   2.0000      -0.609443       -16.5838
  23   2.0000      -0.601487       -16.3673
  24   2.0000      -0.592392       -16.1198
  25   2.0000      -0.567854       -15.4521
  26   2.0000      -0.525015       -14.2864
  27   2.0000      -0.509753       -13.8711
  28   2.0000      -0.502177       -13.6649
  29   2.0000      -0.483208       -13.1488
  30   2.0000      -0.474100       -12.9009
  31   2.0000      -0.458059       -12.4644
  32   2.0000      -0.447704       -12.1826
  33   2.0000      -0.434142       -11.8136
  34   2.0000      -0.427604       -11.6357
  35   2.0000      -0.415361       -11.3026
  36   2.0000      -0.403994       -10.9932
  37   2.0000      -0.388110       -10.5610
  38   2.0000      -0.382316       -10.4033
  39   2.0000      -0.364293        -9.9129
  40   2.0000      -0.362051        -9.8519
  41   2.0000      -0.357677        -9.7329
  42   2.0000      -0.350869        -9.5476
  43   2.0000      -0.325798        -8.8654
  44   2.0000      -0.315092        -8.5741
  45   2.0000      -0.302118        -8.2211
  46   2.0000      -0.292353        -7.9553
  47   2.0000      -0.274554        -7.4710
  48   2.0000      -0.261586        -7.1181
  49   2.0000      -0.255702        -6.9580
  50   2.0000      -0.238807        -6.4983
  51   0.0000       0.066821         1.8183
  52   0.0000       0.077362         2.1051
  53   0.0000       0.089431         2.4335
  54   0.0000       0.104172         2.8347
  55   0.0000       0.108028         2.9396

MULLIKEN ATOMIC CHARGES
-----------------------
   0 C :    0.316742
   1 C :   -0.295984
   2 C :   -0.312154
   3 C :   -0.007582
   4 O :   -0.496678
   5 H :    0.160687
   6 H :    0.159742
   7 H :    0.146505
   8 H :    0.146881
   9 H :    0.152743
  10 H :    0.155311
  11 H :    0.146281
  12 C :    0.006448
  13 H :    0.145548
  14 H :    0.124742
  15 O :   -0.534913
  16 C :    0.066383
  17 C :    0.075466
  18 C :   -0.287374
  19 C :   -0.020971
  20 O :   -0.527712
  21 H :    0.152973
  22 O :   -0.604286
  23 H :    0.148723
  24 H :    0.145685
  25 H :    0.177995
  26 H :    0.163847
  27 H :    0.132820
  28 H :    0.362132
Sum of atomic charges:   -0.0000000

LOEWDIN ATOMIC CHARGES
----------------------
   0 C :    0.178517
   1 C :   -0.230019
   2 C :   -0.221885
   3 C :   -0.031145
   4 O :   -0.316149
   5 H :    0.108333
   6 H :    0.124882
   7 H :    0.116070
   8 H :    0.116567
   9 H :    0.109967
  10 H :    0.109065
  11 H :    0.104558
  12 C :   -0.037328
  13 H :    0.102316
  14 H :    0.093181
  15 O :   -0.326102
  16 C :    0.015292
  17 C :    0.038692
  18 C :   -0.241792
  19 C :   -0.033043
  20 O :   -0.330351
  21 H :    0.114217
  22 O :   -0.418165
  23 H :    0.114370
  24 H :    0.116639
  25 H :    0.132308
  26 H :    0.114672
  27 H :    0.094658
  28 H :    0.281677

  Mayer bond orders larger than 0.100000
B(  0-C ,  1-C ) :   0.9293 B(  0-C ,  4-O ) :   0.9163 B(  0-C ,  5-H ) :   0.9349
B(  0-C , 15-O ) :   0.8761 B(  1-C ,  2-C ) :   0.9526 B(  1-C ,  6-H ) :   0.9347
B(  1-C ,  7-H ) :   0.9334 B(  2-C ,  3-C ) :   0.9486 B(  2-C ,  8-H ) :   0.9448
B(  2-C ,  9-H ) :   0.9365 B(  3-C ,  4-O ) :   0.8441 B(  3-C , 10-H ) :   0.9332
B(  3-C , 11-H ) :   0.9391 B( 12-C , 13-H ) :   0.9016 B( 12-C , 14-H ) :   0.9114
B( 12-C , 15-O ) :   0.8405 B( 12-C , 16-C ) :   0.8993 B( 16-C , 17-C ) :   0.9095
B( 16-C , 20-O ) :   0.8813 B( 16-C , 21-H ) :   0.9223 B( 17-C , 18-C ) :   0.9253
B( 17-C , 22-O ) :   0.8905 B( 17-C , 23-H ) :   0.9360 B( 18-C , 19-C ) :   0.9466
B( 18-C , 24-H ) :   0.9374 B( 18-C , 25-H ) :   0.9179 B( 19-C , 20-O ) :   0.8330
B( 19-C , 26-H ) :   0.9319 B( 19-C , 27-H ) :   0.9371 B( 22-O , 28-H ) :   0.7963

FINAL SINGLE POINT ENERGY      -652.856328606597

DIPOLE MOMENT
-------------
                                X             Y             Z
Electronic contribution:     -3.81501      -1.59592       0.64523
Nuclear contribution   :      4.95259       2.22709      -0.98246
                        -----------------------------------------
Total Dipole Moment    :      1.13758       0.63117      -0.33723
                        -----------------------------------------
Magnitude (a.u.)       :      1.34394
Magnitude (Debye)      :      3.41603

Rotational constants in cm-1:     0.059807     0.013947     0.013403
Rotational constants in MHz :  1792.971293   418.135343   401.801293

                             ****ORCA TERMINATED NORMALLY****
TOTAL RUN TIME: 0 days 0 hours 24 minutes 11 seconds 570 msec
