                         Program Version 4.2.0 -  RELEASE  -
|  1> # Test redundant internal optimization
|  2> #
|  3> ! RKS B3LYP  Opt TightSCF SmallPrint
|  4>
|  5> %basis
|  6>         Basis "6-31G"
|  7> end
|  8>
|  9> %geom
| 10> Constraints
| 11> { D 4  0  15  12  300.0   C } # D for Dihedral angle
| 12> { D 0  15  12  16  150.0   C } # D for Dihedral angle
| 13> { D 0  4  3  2   C } # D for Dihedral angle
| 14> { D 4  3  2  1   C } # D for Dihedral angle
| 15> { D 3  2  1  0   C } # D for Dihedral angle
| 16> { D 2  1  0  4   C } # D for Dihedral angle
| 17> { D 1  0  4  3   C } # D for Dihedral angle
| 18> { D 16  20  19  18   C } # D for Dihedral angle
| 19> { D 20  19  18  17   C } # D for Dihedral angle
| 20> { D 19  18  17  16   C } # D for Dihedral angle
| 21> { D 18  17  16  20   C } # D for Dihedral angle
| 22> { D 17  16  20  19   C } # D for Dihedral angle
| 23> { D 15  12  16  20   C } # D for Dihedral angle
| 24> end
| 25> end
| 26>
| 27>
| 28> #%pal
| 29> #nprocs 8
| 30> #end
| 31>
| 32> * xyz 0 1
| 33> C  -21.048   26.222   46.251
| 34> C  -20.361   27.558   45.944
| 35> C  -20.329   28.222   47.341
| 36> C  -20.110   27.022   48.296
| 37> O  -20.473   25.807   47.535
| 38> H  -20.833   25.428   45.533
| 39> H  -19.344   27.382   45.576
| 40> H  -20.898   28.157   45.201
| 41> H  -19.543   28.978   47.434
| 42> H  -21.289   28.710   47.548
| 43> H  -20.733   27.082   49.195
| 44> H  -19.064   26.913   48.597
| 45> C  -23.362   25.116   46.798
| 46> H  -23.644   24.551   45.901
| 47> H  -22.730   24.473   47.424
| 48> O  -22.586   26.394   46.375
| 49> C  -24.653   25.436   47.601
| 50> C  -25.671   26.192   46.740
| 51> C  -26.289   25.045   45.905
| 52> C  -26.297   23.854   46.896
| 53> O  -25.344   24.197   47.973
| 54> H  -24.381   25.942   48.529
| 55> O  -26.746   26.853   47.645
| 56> H  -25.216   26.972   46.120
| 57> H  -27.290   25.283   45.532
| 58> H  -25.652   24.824   45.040
| 59> H  -25.984   22.915   46.426
| 60> H  -27.274   23.706   47.364
| 61> H  -27.217   26.090   48.276
| 62> *
| 63>
| 64>                          ****END OF INPUT****
 Total Charge           Charge          ....    0
 Multiplicity           Mult            ....    1
 Number of Electrons    NEL             ....  102
FINAL SINGLE POINT ENERGY      -652.841608044913
FINAL SINGLE POINT ENERGY      -652.865768725059
FINAL SINGLE POINT ENERGY      -652.869645251707
FINAL SINGLE POINT ENERGY      -652.870311971636
FINAL SINGLE POINT ENERGY      -652.870390494695
FINAL SINGLE POINT ENERGY      -652.870400605858
FINAL SINGLE POINT ENERGY      -652.870403219758
                    ***********************HURRAY********************

CARTESIAN COORDINATES (ANGSTROEM)
---------------------------------
  C    -21.112259   26.133531   46.257404
  C    -20.575584   27.537135   45.977840
  C    -20.605126   28.171803   47.386105
  C    -20.254379   26.988866   48.314852
  O    -20.497373   25.758553   47.512701
  H    -20.833273   25.356303   45.538782
  H    -19.550826   27.461808   45.597318
  H    -21.188316   28.073515   45.250390
  H    -19.899245   29.001620   47.488140
  H    -21.611067   28.544382   47.598651
  H    -20.871416   26.950399   49.215860
  H    -19.198480   26.968118   48.599465
  C    -23.238481   25.009871   46.759246
  H    -23.481294   24.414080   45.868210
  H    -22.600657   24.416890   47.421439
  O    -22.549477   26.235102   46.358897
  C    -24.495816   25.427566   47.516460
  C    -25.512709   26.229755   46.692996
  C    -26.238702   25.105871   45.911427
  C    -26.265696   23.931982   46.921538
  O    -25.236140   24.235911   47.947316
  H    -24.206989   25.973165   48.419060
  O    -26.424955   26.957530   47.562941
  H    -25.046667   26.980090   46.056440
  H    -27.236307   25.429464   45.606740
  H    -25.672241   24.843596   45.011236
  H    -26.033741   22.966916   46.460892
  H    -27.224342   23.847507   47.442849
  H    -26.699443   26.372670   48.300805

 Multiplicity           Mult            ....    1
 Number of Electrons    NEL             ....  102
 Basis Dimension        Dim             ....  149

ORBITAL ENERGIES
----------------

  NO   OCC          E(Eh)            E(eV)
   0   2.0000     -19.147206      -521.0220
   1   2.0000     -19.143762      -520.9282
   2   2.0000     -19.142561      -520.8956
   3   2.0000     -19.133332      -520.6444
   4   2.0000     -10.280397      -279.7438
   5   2.0000     -10.233349      -278.4636
   6   2.0000     -10.230271      -278.3798
   7   2.0000     -10.229740      -278.3654
   8   2.0000     -10.226994      -278.2907
   9   2.0000     -10.225648      -278.2540
  10   2.0000     -10.186548      -277.1901
  11   2.0000     -10.185819      -277.1702
  12   2.0000     -10.185314      -277.1565
  13   2.0000      -1.056880       -28.7592
  14   2.0000      -1.033584       -28.1253
  15   2.0000      -1.002075       -27.2678
  16   2.0000      -0.995420       -27.0868
  17   2.0000      -0.791491       -21.5376
  18   2.0000      -0.776996       -21.1431
  19   2.0000      -0.765587       -20.8327
  20   2.0000      -0.729407       -19.8482
  21   2.0000      -0.671540       -18.2735
  22   2.0000      -0.601941       -16.3797
  23   2.0000      -0.600076       -16.3289
  24   2.0000      -0.589360       -16.0373
  25   2.0000      -0.580848       -15.8057
  26   2.0000      -0.521765       -14.1979
  27   2.0000      -0.514647       -14.0042
  28   2.0000      -0.496639       -13.5142
  29   2.0000      -0.488471       -13.2920
  30   2.0000      -0.470442       -12.8014
  31   2.0000      -0.455509       -12.3950
  32   2.0000      -0.451803       -12.2942
  33   2.0000      -0.435607       -11.8535
  34   2.0000      -0.422460       -11.4957
  35   2.0000      -0.410337       -11.1658
  36   2.0000      -0.400878       -10.9084
  37   2.0000      -0.390015       -10.6129
  38   2.0000      -0.374846       -10.2001
  39   2.0000      -0.364709        -9.9242
  40   2.0000      -0.358929        -9.7670
  41   2.0000      -0.356086        -9.6896
  42   2.0000      -0.349037        -9.4978
  43   2.0000      -0.337633        -9.1875
  44   2.0000      -0.323544        -8.8041
  45   2.0000      -0.306580        -8.3425
  46   2.0000      -0.296985        -8.0814
  47   2.0000      -0.276104        -7.5132
  48   2.0000      -0.263078        -7.1587
  49   2.0000      -0.257038        -6.9944
  50   2.0000      -0.245134        -6.6704
  51   0.0000       0.066302         1.8042
  52   0.0000       0.080758         2.1975
  53   0.0000       0.094774         2.5789
  54   0.0000       0.101686         2.7670
  55   0.0000       0.107528         2.9260

MULLIKEN ATOMIC CHARGES
-----------------------
   0 C :    0.289450
   1 C :   -0.262858
   2 C :   -0.298021
   3 C :   -0.007309
   4 O :   -0.511915
   5 H :    0.144881
   6 H :    0.146020
   7 H :    0.158258
   8 H :    0.142228
   9 H :    0.164452
  10 H :    0.149331
  11 H :    0.145367
  12 C :   -0.016119
  13 H :    0.127197
  14 H :    0.177558
  15 O :   -0.531674
  16 C :    0.060570
  17 C :    0.090770
  18 C :   -0.299203
  19 C :   -0.026220
  20 O :   -0.527841
  21 H :    0.159654
  22 O :   -0.605243
  23 H :    0.173670
  24 H :    0.159564
  25 H :    0.146905
  26 H :    0.143931
  27 H :    0.144543
  28 H :    0.362055
Sum of atomic charges:   -0.0000000

LOEWDIN ATOMIC CHARGES
----------------------
   0 C :    0.173458
   1 C :   -0.214429
   2 C :   -0.215824
   3 C :   -0.028265
   4 O :   -0.328614
   5 H :    0.096910
   6 H :    0.114689
   7 H :    0.124832
   8 H :    0.114353
   9 H :    0.120187
  10 H :    0.106296
  11 H :    0.104221
  12 C :   -0.045544
  13 H :    0.092546
  14 H :    0.121547
  15 O :   -0.334640
  16 C :    0.018126
  17 C :    0.037483
  18 C :   -0.241329
  19 C :   -0.037084
  20 O :   -0.331117
  21 H :    0.116175
  22 O :   -0.416497
  23 H :    0.126397
  24 H :    0.126005
  25 H :    0.114221
  26 H :    0.103098
  27 H :    0.101627
  28 H :    0.281170

  Mayer bond orders larger than 0.100000
B(  0-C ,  1-C ) :   0.9498 B(  0-C ,  4-O ) :   0.9047 B(  0-C ,  5-H ) :   0.9210
B(  0-C , 15-O ) :   0.8556 B(  1-C ,  2-C ) :   0.9555 B(  1-C ,  6-H ) :   0.9401
B(  1-C ,  7-H ) :   0.9358 B(  2-C ,  3-C ) :   0.9556 B(  2-C ,  8-H ) :   0.9449
B(  2-C ,  9-H ) :   0.9436 B(  3-C ,  4-O ) :   0.8323 B(  3-C , 10-H ) :   0.9356
B(  3-C , 11-H ) :   0.9403 B( 12-C , 13-H ) :   0.9242 B( 12-C , 14-H ) :   0.9087
B( 12-C , 15-O ) :   0.8128 B( 12-C , 16-C ) :   0.9062 B( 16-C , 17-C ) :   0.9120
B( 16-C , 20-O ) :   0.8430 B( 16-C , 21-H ) :   0.9265 B( 17-C , 18-C ) :   0.9131
B( 17-C , 22-O ) :   0.8885 B( 17-C , 23-H ) :   0.9252 B( 18-C , 19-C ) :   0.9396
B( 18-C , 24-H ) :   0.9385 B( 18-C , 25-H ) :   0.9344 B( 19-C , 20-O ) :   0.8448
B( 19-C , 26-H ) :   0.9363 B( 19-C , 27-H ) :   0.9384 B( 22-O , 28-H ) :   0.7961

FINAL SINGLE POINT ENERGY      -652.870403614869

DIPOLE MOMENT
-------------
                                X             Y             Z
Electronic contribution:     -1.46630      -1.85594       1.77522
Nuclear contribution   :      1.80143       1.88586      -2.35695
                        -----------------------------------------
Total Dipole Moment    :      0.33513       0.02991      -0.58173
                        -----------------------------------------
Magnitude (a.u.)       :      0.67203
Magnitude (Debye)      :      1.70816

Rotational constants in cm-1:     0.056302     0.012685     0.012119
Rotational constants in MHz :  1687.902299   380.297500   363.304065

                             ****ORCA TERMINATED NORMALLY****
TOTAL RUN TIME: 0 days 1 hours 58 minutes 10 seconds 198 msec
