                         Program Version 4.2.0 -  RELEASE  -
|  1> # Test redundant internal optimization
|  2> #
|  3> ! RKS B3LYP  Opt TightSCF SmallPrint
|  4>
|  5> %basis
|  6>         Basis "6-31G"
|  7> end
|  8>
|  9> %geom
| 10> Constraints
| 11> { D 4  0  15  12  45.0   C } # D for Dihedral angle
| 12> { D 0  15  12  16  255.0   C } # D for Dihedral angle
| 13> { D 0  4  3  2   C } # D for Dihedral angle
| 14> { D 4  3  2  1   C } # D for Dihedral angle
| 15> { D 3  2  1  0   C } # D for Dihedral angle
| 16> { D 2  1  0  4   C } # D for Dihedral angle
| 17> { D 1  0  4  3   C } # D for Dihedral angle
| 18> { D 16  20  19  18   C } # D for Dihedral angle
| 19> { D 20  19  18  17   C } # D for Dihedral angle
| 20> { D 19  18  17  16   C } # D for Dihedral angle
| 21> { D 18  17  16  20   C } # D for Dihedral angle
| 22> { D 17  16  20  19   C } # D for Dihedral angle
| 23> { D 15  12  16  20   C } # D for Dihedral angle
| 24> end
| 25> end
| 26>
| 27>
| 28> #%pal
| 29> #nprocs 8
| 30> #end
| 31>
| 32> * xyz 0 1
| 33> C  -21.048   26.222   46.251
| 34> C  -20.361   27.558   45.944
| 35> C  -20.329   28.222   47.341
| 36> C  -20.110   27.022   48.296
| 37> O  -20.473   25.807   47.535
| 38> H  -20.833   25.428   45.533
| 39> H  -19.344   27.382   45.576
| 40> H  -20.898   28.157   45.201
| 41> H  -19.543   28.978   47.434
| 42> H  -21.289   28.710   47.548
| 43> H  -20.733   27.082   49.195
| 44> H  -19.064   26.913   48.597
| 45> C  -23.065   27.161   47.638
| 46> H  -22.213   27.688   48.086
| 47> H  -23.826   27.906   47.369
| 48> O  -22.586   26.394   46.375
| 49> C  -23.680   26.224   48.713
| 50> C  -24.824   25.384   48.132
| 51> C  -24.049   24.273   47.385
| 52> C  -22.810   24.042   48.285
| 53> O  -22.693   25.233   49.154
| 54> H  -23.953   26.815   49.589
| 55> O  -25.677   24.780   49.280
| 56> H  -25.486   25.956   47.473
| 57> H  -24.640   23.362   47.246
| 58> H  -23.744   24.628   46.393
| 59> H  -21.886   23.926   47.708
| 60> H  -22.927   23.175   48.942
| 61> H  -25.034   24.202   49.953
| 62> *
| 63>
| 64>                          ****END OF INPUT****
 Total Charge           Charge          ....    0
 Multiplicity           Mult            ....    1
 Number of Electrons    NEL             ....  102
FINAL SINGLE POINT ENERGY      -652.812921907766
FINAL SINGLE POINT ENERGY      -652.841505464099
FINAL SINGLE POINT ENERGY      -652.854996792673
FINAL SINGLE POINT ENERGY      -652.857362983042
FINAL SINGLE POINT ENERGY      -652.857700209547
FINAL SINGLE POINT ENERGY      -652.857760505165
FINAL SINGLE POINT ENERGY      -652.857766609820
                    ***********************HURRAY********************

CARTESIAN COORDINATES (ANGSTROEM)
---------------------------------
  C    -21.102973   26.395592   46.348753
  C    -20.369980   27.680778   45.945264
  C    -20.057691   28.326590   47.326046
  C    -19.785071   27.089640   48.219479
  O    -20.373015   25.931940   47.498581
  H    -21.035149   25.608182   45.596412
  H    -19.442813   27.410540   45.427603
  H    -20.970545   28.315806   45.289731
  H    -19.191133   28.994161   47.284289
  H    -20.906882   28.914631   47.685431
  H    -20.246626   27.146925   49.208383
  H    -18.716644   26.882640   48.329763
  C    -23.176517   27.134114   47.679865
  H    -22.466976   27.740284   48.248977
  H    -23.955895   27.798636   47.286628
  O    -22.538471   26.524538   46.518910
  C    -23.813719   26.131403   48.650159
  C    -24.912994   25.238003   48.057360
  C    -24.083042   24.092487   47.419040
  C    -22.894676   23.937570   48.400627
  O    -22.848017   25.186998   49.199081
  H    -24.214840   26.709029   49.492567
  O    -25.804443   24.758458   49.105063
  H    -25.560802   25.751341   47.345708
  H    -24.683999   23.183644   47.326047
  H    -23.732918   24.406836   46.434291
  H    -21.933019   23.823559   47.897656
  H    -23.034442   23.112932   49.107905
  H    -25.264709   24.402744   49.842380

 Multiplicity           Mult            ....    1
 Number of Electrons    NEL             ....  102
 Basis Dimension        Dim             ....  149

ORBITAL ENERGIES
----------------

  NO   OCC          E(Eh)            E(eV)
   0   2.0000     -19.146269      -520.9965
   1   2.0000     -19.144249      -520.9415
   2   2.0000     -19.131785      -520.6023
   3   2.0000     -19.129279      -520.5341
   4   2.0000     -10.282624      -279.8044
   5   2.0000     -10.234085      -278.4836
   6   2.0000     -10.230578      -278.3882
   7   2.0000     -10.230304      -278.3807
   8   2.0000     -10.228243      -278.3246
   9   2.0000     -10.213533      -277.9243
  10   2.0000     -10.195111      -277.4231
  11   2.0000     -10.190562      -277.2993
  12   2.0000     -10.169996      -276.7397
  13   2.0000      -1.054327       -28.6897
  14   2.0000      -1.026725       -27.9386
  15   2.0000      -0.999443       -27.1962
  16   2.0000      -0.992425       -27.0052
  17   2.0000      -0.790537       -21.5116
  18   2.0000      -0.776610       -21.1326
  19   2.0000      -0.759776       -20.6746
  20   2.0000      -0.733086       -19.9483
  21   2.0000      -0.674251       -18.3473
  22   2.0000      -0.606188       -16.4952
  23   2.0000      -0.603595       -16.4247
  24   2.0000      -0.590403       -16.0657
  25   2.0000      -0.564125       -15.3506
  26   2.0000      -0.523940       -14.2571
  27   2.0000      -0.508128       -13.8269
  28   2.0000      -0.493980       -13.4419
  29   2.0000      -0.483794       -13.1647
  30   2.0000      -0.471588       -12.8326
  31   2.0000      -0.458574       -12.4784
  32   2.0000      -0.444064       -12.0836
  33   2.0000      -0.431407       -11.7392
  34   2.0000      -0.421899       -11.4805
  35   2.0000      -0.415583       -11.3086
  36   2.0000      -0.397244       -10.8095
  37   2.0000      -0.382427       -10.4064
  38   2.0000      -0.381085       -10.3699
  39   2.0000      -0.363984        -9.9045
  40   2.0000      -0.361385        -9.8338
  41   2.0000      -0.356042        -9.6884
  42   2.0000      -0.347640        -9.4598
  43   2.0000      -0.325127        -8.8472
  44   2.0000      -0.318046        -8.6545
  45   2.0000      -0.309098        -8.4110
  46   2.0000      -0.294214        -8.0060
  47   2.0000      -0.265553        -7.2261
  48   2.0000      -0.263685        -7.1752
  49   2.0000      -0.255539        -6.9536
  50   2.0000      -0.230753        -6.2791
  51   0.0000       0.068477         1.8634
  52   0.0000       0.080609         2.1935
  53   0.0000       0.094278         2.5654
  54   0.0000       0.102002         2.7756
  55   0.0000       0.108061         2.9405

MULLIKEN ATOMIC CHARGES
-----------------------
   0 C :    0.305829
   1 C :   -0.266368
   2 C :   -0.322017
   3 C :   -0.013051
   4 O :   -0.500637
   5 H :    0.161367
   6 H :    0.151630
   7 H :    0.153244
   8 H :    0.148189
   9 H :    0.151215
  10 H :    0.161785
  11 H :    0.148939
  12 C :   -0.008832
  13 H :    0.137345
  14 H :    0.142712
  15 O :   -0.535888
  16 C :    0.079144
  17 C :    0.077096
  18 C :   -0.291964
  19 C :   -0.020713
  20 O :   -0.524933
  21 H :    0.148060
  22 O :   -0.606687
  23 H :    0.149199
  24 H :    0.146460
  25 H :    0.171314
  26 H :    0.165793
  27 H :    0.130466
  28 H :    0.361302
Sum of atomic charges:   -0.0000000

LOEWDIN ATOMIC CHARGES
----------------------
   0 C :    0.177929
   1 C :   -0.225874
   2 C :   -0.225105
   3 C :   -0.032919
   4 O :   -0.310997
   5 H :    0.110273
   6 H :    0.118540
   7 H :    0.121010
   8 H :    0.117088
   9 H :    0.109387
  10 H :    0.110900
  11 H :    0.106155
  12 C :   -0.037377
  13 H :    0.102445
  14 H :    0.108356
  15 O :   -0.333842
  16 C :    0.007912
  17 C :    0.037783
  18 C :   -0.242298
  19 C :   -0.034245
  20 O :   -0.327869
  21 H :    0.112705
  22 O :   -0.419499
  23 H :    0.114157
  24 H :    0.117353
  25 H :    0.128309
  26 H :    0.114782
  27 H :    0.094003
  28 H :    0.280939

  Mayer bond orders larger than 0.100000
B(  0-C ,  1-C ) :   0.9223 B(  0-C ,  4-O ) :   0.9114 B(  0-C ,  5-H ) :   0.9357
B(  0-C , 15-O ) :   0.8649 B(  1-C ,  2-C ) :   0.9542 B(  1-C ,  6-H ) :   0.9349
B(  1-C ,  7-H ) :   0.9376 B(  2-C ,  3-C ) :   0.9474 B(  2-C ,  8-H ) :   0.9442
B(  2-C ,  9-H ) :   0.9394 B(  3-C ,  4-O ) :   0.8328 B(  3-C , 10-H ) :   0.9284
B(  3-C , 11-H ) :   0.9387 B( 12-C , 13-H ) :   0.9132 B( 12-C , 14-H ) :   0.9278
B( 12-C , 15-O ) :   0.8523 B( 12-C , 16-C ) :   0.8803 B( 16-C , 17-C ) :   0.9105
B( 16-C , 20-O ) :   0.8834 B( 16-C , 21-H ) :   0.9179 B( 17-C , 18-C ) :   0.9240
B( 17-C , 22-O ) :   0.8880 B( 17-C , 23-H ) :   0.9363 B( 18-C , 19-C ) :   0.9442
B( 18-C , 24-H ) :   0.9376 B( 18-C , 25-H ) :   0.9199 B( 19-C , 20-O ) :   0.8329
B( 19-C , 26-H ) :   0.9253 B( 19-C , 27-H ) :   0.9388 B( 22-O , 28-H ) :   0.7964

FINAL SINGLE POINT ENERGY      -652.857765890874

DIPOLE MOMENT
-------------
                                X             Y             Z
Electronic contribution:     -2.83478      -2.77836       1.53049
Nuclear contribution   :      3.74610       3.67793      -1.91852
                        -----------------------------------------
Total Dipole Moment    :      0.91132       0.89957      -0.38803
                        -----------------------------------------
Magnitude (a.u.)       :      1.33802
Magnitude (Debye)      :      3.40097

Rotational constants in cm-1:     0.059455     0.015742     0.015308
Rotational constants in MHz :  1782.414113   471.929575   458.934857

                             ****ORCA TERMINATED NORMALLY****
TOTAL RUN TIME: 0 days 1 hours 7 minutes 8 seconds 963 msec
