                         Program Version 4.2.0 -  RELEASE  -
|  1> # Test redundant internal optimization
|  2> #
|  3> ! RKS B3LYP  Opt TightSCF SmallPrint
|  4>
|  5> %basis
|  6>         Basis "6-31G"
|  7> end
|  8>
|  9> %geom
| 10> Constraints
| 11> { D 4  0  15  12  285.0   C } # D for Dihedral angle
| 12> { D 0  15  12  16  255.0   C } # D for Dihedral angle
| 13> { D 0  4  3  2   C } # D for Dihedral angle
| 14> { D 4  3  2  1   C } # D for Dihedral angle
| 15> { D 3  2  1  0   C } # D for Dihedral angle
| 16> { D 2  1  0  4   C } # D for Dihedral angle
| 17> { D 1  0  4  3   C } # D for Dihedral angle
| 18> { D 16  20  19  18   C } # D for Dihedral angle
| 19> { D 20  19  18  17   C } # D for Dihedral angle
| 20> { D 19  18  17  16   C } # D for Dihedral angle
| 21> { D 18  17  16  20   C } # D for Dihedral angle
| 22> { D 17  16  20  19   C } # D for Dihedral angle
| 23> { D 15  12  16  20   C } # D for Dihedral angle
| 24> end
| 25> end
| 26>
| 27>
| 28> #%pal
| 29> #nprocs 8
| 30> #end
| 31>
| 32> * xyz 0 1
| 33> C  -21.048   26.222   46.251
| 34> C  -20.361   27.558   45.944
| 35> C  -20.329   28.222   47.341
| 36> C  -20.110   27.022   48.296
| 37> O  -20.473   25.807   47.535
| 38> H  -20.833   25.428   45.533
| 39> H  -19.344   27.382   45.576
| 40> H  -20.898   28.157   45.201
| 41> H  -19.543   28.978   47.434
| 42> H  -21.289   28.710   47.548
| 43> H  -20.733   27.082   49.195
| 44> H  -19.064   26.913   48.597
| 45> C  -23.396   25.070   46.435
| 46> H  -22.715   24.239   46.655
| 47> H  -24.149   25.116   47.232
| 48> O  -22.586   26.394   46.375
| 49> C  -24.135   24.757   45.105
| 50> C  -25.014   23.508   45.237
| 51> C  -26.253   24.073   45.971
| 52> C  -26.386   25.503   45.388
| 53> O  -25.079   25.830   44.778
| 54> H  -23.406   24.713   44.293
| 55> O  -25.405   22.980   43.829
| 56> H  -24.527   22.696   45.788
| 57> H  -27.153   23.472   45.810
| 58> H  -26.065   24.113   47.051
| 59> H  -26.620   26.249   46.156
| 60> H  -27.136   25.562   44.595
| 61> H  -25.894   23.777   43.260
| 62> *
| 63>
| 64>                          ****END OF INPUT****
 Total Charge           Charge          ....    0
 Multiplicity           Mult            ....    1
 Number of Electrons    NEL             ....  102
FINAL SINGLE POINT ENERGY      -652.835725737986
FINAL SINGLE POINT ENERGY      -652.859552264078
FINAL SINGLE POINT ENERGY      -652.863627112988
FINAL SINGLE POINT ENERGY      -652.864380762743
FINAL SINGLE POINT ENERGY      -652.864493687038
FINAL SINGLE POINT ENERGY      -652.864503715361
                    ***********************HURRAY********************

CARTESIAN COORDINATES (ANGSTROEM)
---------------------------------
  C    -21.113595   26.134182   46.222495
  C    -20.512918   27.503809   45.905813
  C    -20.460979   28.156752   47.305333
  C    -20.142019   26.966277   48.237219
  O    -20.475938   25.742985   47.463234
  H    -20.898247   25.336459   45.504914
  H    -19.505673   27.370055   45.495003
  H    -21.121235   28.061061   45.190871
  H    -19.709169   28.949312   47.372830
  H    -21.438808   28.583443   47.545832
  H    -20.730738   26.973287   49.158050
  H    -19.079530   26.895152   48.488885
  C    -23.322961   25.098394   46.491688
  H    -22.675671   24.249143   46.748783
  H    -24.018230   25.258885   47.321804
  O    -22.535313   26.319749   46.380273
  C    -24.082299   24.815693   45.195621
  C    -24.975547   23.567881   45.261536
  C    -26.246623   24.126405   45.953978
  C    -26.343519   25.568790   45.395877
  O    -25.005360   25.900520   44.850573
  H    -23.371218   24.743508   44.365758
  O    -25.264499   23.065505   43.927867
  H    -24.527378   22.727341   45.793426
  H    -27.118071   23.512856   45.711338
  H    -26.118227   24.127263   47.042454
  H    -26.607692   26.303160   46.162797
  H    -27.058476   25.652863   44.571247
  H    -25.484065   23.822272   43.343502

 Multiplicity           Mult            ....    1
 Number of Electrons    NEL             ....  102
 Basis Dimension        Dim             ....  149

ORBITAL ENERGIES
----------------

  NO   OCC          E(Eh)            E(eV)
   0   2.0000     -19.141510      -520.8670
   1   2.0000     -19.140937      -520.8514
   2   2.0000     -19.139674      -520.8170
   3   2.0000     -19.137059      -520.7459
   4   2.0000     -10.276193      -279.6294
   5   2.0000     -10.243997      -278.7533
   6   2.0000     -10.234158      -278.4856
   7   2.0000     -10.230902      -278.3970
   8   2.0000     -10.230228      -278.3787
   9   2.0000     -10.222572      -278.1703
  10   2.0000     -10.191282      -277.3189
  11   2.0000     -10.181589      -277.0551
  12   2.0000     -10.181370      -277.0492
  13   2.0000      -1.052310       -28.6348
  14   2.0000      -1.036273       -28.1984
  15   2.0000      -1.006661       -27.3926
  16   2.0000      -0.990796       -26.9609
  17   2.0000      -0.789032       -21.4706
  18   2.0000      -0.780881       -21.2489
  19   2.0000      -0.765759       -20.8374
  20   2.0000      -0.729737       -19.8571
  21   2.0000      -0.672902       -18.3106
  22   2.0000      -0.605649       -16.4806
  23   2.0000      -0.599837       -16.3224
  24   2.0000      -0.593561       -16.1516
  25   2.0000      -0.576193       -15.6790
  26   2.0000      -0.527791       -14.3619
  27   2.0000      -0.509986       -13.8774
  28   2.0000      -0.493134       -13.4189
  29   2.0000      -0.490361       -13.3434
  30   2.0000      -0.472404       -12.8548
  31   2.0000      -0.455129       -12.3847
  32   2.0000      -0.452324       -12.3084
  33   2.0000      -0.438199       -11.9240
  34   2.0000      -0.424915       -11.5625
  35   2.0000      -0.410132       -11.1603
  36   2.0000      -0.399029       -10.8581
  37   2.0000      -0.394270       -10.7286
  38   2.0000      -0.373063       -10.1516
  39   2.0000      -0.368239       -10.0203
  40   2.0000      -0.357021        -9.7150
  41   2.0000      -0.353273        -9.6130
  42   2.0000      -0.344984        -9.3875
  43   2.0000      -0.334186        -9.0937
  44   2.0000      -0.325182        -8.8486
  45   2.0000      -0.308389        -8.3917
  46   2.0000      -0.296101        -8.0573
  47   2.0000      -0.273171        -7.4334
  48   2.0000      -0.271821        -7.3966
  49   2.0000      -0.252254        -6.8642
  50   2.0000      -0.238067        -6.4781
  51   0.0000       0.065769         1.7897
  52   0.0000       0.086986         2.3670
  53   0.0000       0.089948         2.4476
  54   0.0000       0.100034         2.7221
  55   0.0000       0.101923         2.7735

MULLIKEN ATOMIC CHARGES
-----------------------
   0 C :    0.275064
   1 C :   -0.258921
   2 C :   -0.299547
   3 C :   -0.002290
   4 O :   -0.513618
   5 H :    0.140499
   6 H :    0.143318
   7 H :    0.163165
   8 H :    0.139895
   9 H :    0.165339
  10 H :    0.145320
  11 H :    0.141570
  12 C :   -0.016201
  13 H :    0.146233
  14 H :    0.147246
  15 O :   -0.501847
  16 C :    0.066806
  17 C :    0.076837
  18 C :   -0.302458
  19 C :   -0.031914
  20 O :   -0.508743
  21 H :    0.158380
  22 O :   -0.600830
  23 H :    0.152581
  24 H :    0.163688
  25 H :    0.147798
  26 H :    0.150627
  27 H :    0.147050
  28 H :    0.364952
Sum of atomic charges:   -0.0000000

LOEWDIN ATOMIC CHARGES
----------------------
   0 C :    0.169207
   1 C :   -0.214442
   2 C :   -0.216056
   3 C :   -0.027550
   4 O :   -0.333253
   5 H :    0.094888
   6 H :    0.113180
   7 H :    0.127186
   8 H :    0.112788
   9 H :    0.120647
  10 H :    0.104607
  11 H :    0.102072
  12 C :   -0.043765
  13 H :    0.108659
  14 H :    0.109314
  15 O :   -0.315471
  16 C :    0.008264
  17 C :    0.034446
  18 C :   -0.242819
  19 C :   -0.039221
  20 O :   -0.322176
  21 H :    0.114166
  22 O :   -0.413859
  23 H :    0.115650
  24 H :    0.127007
  25 H :    0.114130
  26 H :    0.106362
  27 H :    0.102690
  28 H :    0.283351

  Mayer bond orders larger than 0.100000
B(  0-C ,  1-C ) :   0.9496 B(  0-C ,  4-O ) :   0.9027 B(  0-C ,  5-H ) :   0.9185
B(  0-C , 15-O ) :   0.8704 B(  1-C ,  2-C ) :   0.9567 B(  1-C ,  6-H ) :   0.9407
B(  1-C ,  7-H ) :   0.9350 B(  2-C ,  3-C ) :   0.9555 B(  2-C ,  8-H ) :   0.9453
B(  2-C ,  9-H ) :   0.9438 B(  3-C ,  4-O ) :   0.8372 B(  3-C , 10-H ) :   0.9362
B(  3-C , 11-H ) :   0.9405 B( 12-C , 13-H ) :   0.9118 B( 12-C , 14-H ) :   0.9360
B( 12-C , 15-O ) :   0.8450 B( 12-C , 16-C ) :   0.8864 B( 16-C , 17-C ) :   0.8967
B( 16-C , 20-O ) :   0.8648 B( 16-C , 21-H ) :   0.9266 B( 17-C , 18-C ) :   0.9121
B( 17-C , 22-O ) :   0.8927 B( 17-C , 23-H ) :   0.9327 B( 18-C , 19-C ) :   0.9412
B( 18-C , 24-H ) :   0.9370 B( 18-C , 25-H ) :   0.9336 B( 19-C , 20-O ) :   0.8513
B( 19-C , 26-H ) :   0.9333 B( 19-C , 27-H ) :   0.9374 B( 22-O , 28-H ) :   0.7938

FINAL SINGLE POINT ENERGY      -652.864504895371

DIPOLE MOMENT
-------------
                                X             Y             Z
Electronic contribution:     -0.68417      -2.41706      -2.69079
Nuclear contribution   :      0.56088       2.80033       3.12419
                        -----------------------------------------
Total Dipole Moment    :     -0.12329       0.38327       0.43340
                        -----------------------------------------
Magnitude (a.u.)       :      0.59155
Magnitude (Debye)      :      1.50360

Rotational constants in cm-1:     0.066461     0.011205     0.010894
Rotational constants in MHz :  1992.440454   335.911991   326.590908

                             ****ORCA TERMINATED NORMALLY****
TOTAL RUN TIME: 0 days 1 hours 41 minutes 41 seconds 120 msec
