                         Program Version 4.2.0 -  RELEASE  -
|  1> # Test redundant internal optimization
|  2> #
|  3> ! RKS B3LYP  Opt TightSCF SmallPrint
|  4>
|  5> %basis
|  6>         Basis "6-31G"
|  7> end
|  8>
|  9> %geom
| 10> Constraints
| 11> { D 4  0  15  12  300.0   C } # D for Dihedral angle
| 12> { D 0  15  12  16  0.0   C } # D for Dihedral angle
| 13> { D 0  4  3  2   C } # D for Dihedral angle
| 14> { D 4  3  2  1   C } # D for Dihedral angle
| 15> { D 3  2  1  0   C } # D for Dihedral angle
| 16> { D 2  1  0  4   C } # D for Dihedral angle
| 17> { D 1  0  4  3   C } # D for Dihedral angle
| 18> { D 16  20  19  18   C } # D for Dihedral angle
| 19> { D 20  19  18  17   C } # D for Dihedral angle
| 20> { D 19  18  17  16   C } # D for Dihedral angle
| 21> { D 18  17  16  20   C } # D for Dihedral angle
| 22> { D 17  16  20  19   C } # D for Dihedral angle
| 23> { D 15  12  16  20   C } # D for Dihedral angle
| 24> end
| 25> end
| 26>
| 27>
| 28> #%pal
| 29> #nprocs 8
| 30> #end
| 31>
| 32> * xyz 0 1
| 33> C  -21.048   26.222   46.251
| 34> C  -20.361   27.558   45.944
| 35> C  -20.329   28.222   47.341
| 36> C  -20.110   27.022   48.296
| 37> O  -20.473   25.807   47.535
| 38> H  -20.833   25.428   45.533
| 39> H  -19.344   27.382   45.576
| 40> H  -20.898   28.157   45.201
| 41> H  -19.543   28.978   47.434
| 42> H  -21.289   28.710   47.548
| 43> H  -20.733   27.082   49.195
| 44> H  -19.064   26.913   48.597
| 45> C  -23.362   25.116   46.798
| 46> H  -23.900   25.312   47.733
| 47> H  -24.097   24.842   46.030
| 48> O  -22.586   26.394   46.375
| 49> C  -22.429   23.893   47.018
| 50> C  -23.236   22.625   47.320
| 51> C  -23.705   22.208   45.906
| 52> C  -22.510   22.609   45.006
| 53> O  -21.703   23.573   45.784
| 54> H  -21.682   24.144   47.773
| 55> H  -22.584   21.858   47.753
| 56> O  -24.417   22.873   48.298
| 57> H  -23.942   21.141   45.835
| 58> H  -24.604   22.770   45.626
| 59> H  -22.829   23.082   44.070
| 60> H  -21.860   21.761   44.771
| 61> H  -25.084   23.637   47.885
| 62> *
| 63>
| 64>                          ****END OF INPUT****
 Total Charge           Charge          ....    0
 Multiplicity           Mult            ....    1
 Number of Electrons    NEL             ....  102
FINAL SINGLE POINT ENERGY      -652.827543115470
FINAL SINGLE POINT ENERGY      -652.851154318424
FINAL SINGLE POINT ENERGY      -652.855830878464
FINAL SINGLE POINT ENERGY      -652.858415921242
FINAL SINGLE POINT ENERGY      -652.858678802349
FINAL SINGLE POINT ENERGY      -652.858757476366
FINAL SINGLE POINT ENERGY      -652.858765287509
FINAL SINGLE POINT ENERGY      -652.858768220889
                    ***********************HURRAY********************

CARTESIAN COORDINATES (ANGSTROEM)
---------------------------------
  C    -20.930032   26.240538   46.224210
  C    -20.434582   27.666910   45.976237
  C    -20.439669   28.254867   47.406131
  C    -20.034216   27.049199   48.284658
  O    -20.268137   25.839805   47.454041
  H    -20.658810   25.485279   45.487248
  H    -19.419095   27.626159   45.566318
  H    -21.079984   28.210473   45.283463
  H    -19.751821   29.098672   47.518758
  H    -21.448717   28.593136   47.657741
  H    -20.624409   26.971360   49.202011
  H    -18.970680   27.050881   48.542193
  C    -23.158356   25.153274   46.746245
  H    -23.684555   25.420902   47.670972
  H    -23.904202   25.028481   45.949637
  O    -22.366503   26.322217   46.364838
  C    -22.414614   23.838564   46.991951
  C    -23.353168   22.661926   47.322770
  C    -23.816990   22.213903   45.901807
  C    -22.557443   22.458141   45.039917
  O    -21.685115   23.385380   45.805043
  H    -21.654185   23.994721   47.756957
  H    -22.775190   21.869627   47.803420
  O    -24.422622   22.951410   48.253428
  H    -24.148477   21.172382   45.884591
  H    -24.656281   22.841938   45.573738
  H    -22.787363   22.904049   44.067039
  H    -21.983370   21.540951   44.879182
  H    -25.126414   23.473854   47.817456

 Multiplicity           Mult            ....    1
 Number of Electrons    NEL             ....  102
 Basis Dimension        Dim             ....  149

ORBITAL ENERGIES
----------------

  NO   OCC          E(Eh)            E(eV)
   0   2.0000     -19.149705      -521.0900
   1   2.0000     -19.139886      -520.8228
   2   2.0000     -19.133178      -520.6402
   3   2.0000     -19.132243      -520.6148
   4   2.0000     -10.264191      -279.3028
   5   2.0000     -10.245306      -278.7890
   6   2.0000     -10.231566      -278.4151
   7   2.0000     -10.226675      -278.2820
   8   2.0000     -10.225205      -278.2420
   9   2.0000     -10.218254      -278.0528
  10   2.0000     -10.196185      -277.4523
  11   2.0000     -10.177780      -276.9515
  12   2.0000     -10.176515      -276.9170
  13   2.0000      -1.043386       -28.3920
  14   2.0000      -1.032368       -28.0921
  15   2.0000      -1.015389       -27.6301
  16   2.0000      -0.981915       -26.7193
  17   2.0000      -0.784442       -21.3458
  18   2.0000      -0.779818       -21.2199
  19   2.0000      -0.760554       -20.6957
  20   2.0000      -0.726970       -19.7819
  21   2.0000      -0.675986       -18.3945
  22   2.0000      -0.612499       -16.6669
  23   2.0000      -0.596028       -16.2188
  24   2.0000      -0.590423       -16.0662
  25   2.0000      -0.559607       -15.2277
  26   2.0000      -0.527094       -14.3429
  27   2.0000      -0.507493       -13.8096
  28   2.0000      -0.495087       -13.4720
  29   2.0000      -0.477025       -12.9805
  30   2.0000      -0.463454       -12.6112
  31   2.0000      -0.453864       -12.3503
  32   2.0000      -0.439866       -11.9694
  33   2.0000      -0.429049       -11.6750
  34   2.0000      -0.427224       -11.6253
  35   2.0000      -0.410806       -11.1786
  36   2.0000      -0.404135       -10.9971
  37   2.0000      -0.393307       -10.7024
  38   2.0000      -0.381337       -10.3767
  39   2.0000      -0.365895        -9.9565
  40   2.0000      -0.355862        -9.6835
  41   2.0000      -0.349153        -9.5009
  42   2.0000      -0.339199        -9.2301
  43   2.0000      -0.328965        -8.9516
  44   2.0000      -0.321164        -8.7393
  45   2.0000      -0.313869        -8.5408
  46   2.0000      -0.292021        -7.9463
  47   2.0000      -0.270997        -7.3742
  48   2.0000      -0.262175        -7.1341
  49   2.0000      -0.242081        -6.5874
  50   2.0000      -0.236257        -6.4289
  51   0.0000       0.051225         1.3939
  52   0.0000       0.077675         2.1137
  53   0.0000       0.094025         2.5585
  54   0.0000       0.096392         2.6230
  55   0.0000       0.107352         2.9212

MULLIKEN ATOMIC CHARGES
-----------------------
   0 C :    0.289816
   1 C :   -0.260890
   2 C :   -0.296450
   3 C :   -0.006059
   4 O :   -0.516766
   5 H :    0.181484
   6 H :    0.143793
   7 H :    0.155257
   8 H :    0.136793
   9 H :    0.158879
  10 H :    0.141502
  11 H :    0.141862
  12 C :    0.012320
  13 H :    0.141396
  14 H :    0.126344
  15 O :   -0.549184
  16 C :    0.052948
  17 C :    0.081654
  18 C :   -0.323752
  19 C :   -0.012874
  20 O :   -0.517959
  21 H :    0.201062
  22 H :    0.171544
  23 O :   -0.597948
  24 H :    0.156894
  25 H :    0.133687
  26 H :    0.145068
  27 H :    0.152996
  28 H :    0.356583
Sum of atomic charges:   -0.0000000

LOEWDIN ATOMIC CHARGES
----------------------
   0 C :    0.171920
   1 C :   -0.213476
   2 C :   -0.216058
   3 C :   -0.031142
   4 O :   -0.329005
   5 H :    0.114511
   6 H :    0.113296
   7 H :    0.123569
   8 H :    0.111181
   9 H :    0.117509
  10 H :    0.102013
  11 H :    0.102009
  12 C :   -0.044070
  13 H :    0.106790
  14 H :    0.094306
  15 O :   -0.332829
  16 C :    0.000319
  17 C :    0.038285
  18 C :   -0.242009
  19 C :   -0.031453
  20 O :   -0.321691
  21 H :    0.135293
  22 H :    0.120797
  23 O :   -0.405298
  24 H :    0.122403
  25 H :    0.103891
  26 H :    0.103112
  27 H :    0.107307
  28 H :    0.278521

  Mayer bond orders larger than 0.100000
B(  0-C ,  1-C ) :   0.9440 B(  0-C ,  4-O ) :   0.8788 B(  0-C ,  5-H ) :   0.9049
B(  0-C , 15-O ) :   0.8469 B(  1-C ,  2-C ) :   0.9549 B(  1-C ,  6-H ) :   0.9411
B(  1-C ,  7-H ) :   0.9370 B(  2-C ,  3-C ) :   0.9558 B(  2-C ,  8-H ) :   0.9458
B(  2-C ,  9-H ) :   0.9448 B(  3-C ,  4-O ) :   0.8399 B(  3-C , 10-H ) :   0.9362
B(  3-C , 11-H ) :   0.9407 B( 12-C , 13-H ) :   0.9125 B( 12-C , 14-H ) :   0.9308
B( 12-C , 15-O ) :   0.8432 B( 12-C , 16-C ) :   0.9094 B( 16-C , 17-C ) :   0.8664
B( 16-C , 20-O ) :   0.8357 B( 16-C , 21-H ) :   0.9031 B( 17-C , 18-C ) :   0.9222
B( 17-C , 22-H ) :   0.9327 B( 17-C , 23-O ) :   0.9004 B( 18-C , 19-C ) :   0.9392
B( 18-C , 24-H ) :   0.9422 B( 18-C , 25-H ) :   0.9401 B( 19-C , 20-O ) :   0.8449
B( 19-C , 26-H ) :   0.9316 B( 19-C , 27-H ) :   0.9377 B( 23-O , 28-H ) :   0.7981

FINAL SINGLE POINT ENERGY      -652.858768465895

DIPOLE MOMENT
-------------
                                X             Y             Z
Electronic contribution:     -0.08600      -2.37131       0.88504
Nuclear contribution   :     -0.46550       2.48405      -1.43601
                        -----------------------------------------
Total Dipole Moment    :     -0.55150       0.11274      -0.55098
                        -----------------------------------------
Magnitude (a.u.)       :      0.78768
Magnitude (Debye)      :      2.00213

Rotational constants in cm-1:     0.056227     0.014287     0.013240
Rotational constants in MHz :  1685.641557   428.324125   396.915560

                             ****ORCA TERMINATED NORMALLY****
TOTAL RUN TIME: 0 days 0 hours 30 minutes 14 seconds 328 msec
