                         Program Version 4.2.0 -  RELEASE  -
|  1> # Test redundant internal optimization
|  2> #
|  3> ! RKS B3LYP  Opt TightSCF SmallPrint
|  4>
|  5> %basis
|  6>         Basis "6-31G"
|  7> end
|  8>
|  9> %geom
| 10> Constraints
| 11> { D 4  0  15  12  75.0   C } # D for Dihedral angle
| 12> { D 0  15  12  16  195.0   C } # D for Dihedral angle
| 13> { D 0  4  3  2   C } # D for Dihedral angle
| 14> { D 4  3  2  1   C } # D for Dihedral angle
| 15> { D 3  2  1  0   C } # D for Dihedral angle
| 16> { D 2  1  0  4   C } # D for Dihedral angle
| 17> { D 1  0  4  3   C } # D for Dihedral angle
| 18> { D 16  20  19  18   C } # D for Dihedral angle
| 19> { D 20  19  18  17   C } # D for Dihedral angle
| 20> { D 19  18  17  16   C } # D for Dihedral angle
| 21> { D 18  17  16  20   C } # D for Dihedral angle
| 22> { D 17  16  20  19   C } # D for Dihedral angle
| 23> { D 15  12  16  20   C } # D for Dihedral angle
| 24> end
| 25> end
| 26>
| 27>
| 28> #%pal
| 29> #nprocs 8
| 30> #end
| 31>
| 32> * xyz 0 1
| 33> C  -21.048   26.222   46.251
| 34> C  -20.361   27.558   45.944
| 35> C  -20.329   28.222   47.341
| 36> C  -20.110   27.022   48.296
| 37> O  -20.473   25.807   47.535
| 38> H  -20.833   25.428   45.533
| 39> H  -19.344   27.382   45.576
| 40> H  -20.898   28.157   45.201
| 41> H  -19.543   28.978   47.434
| 42> H  -21.289   28.710   47.548
| 43> H  -20.733   27.082   49.195
| 44> H  -19.064   26.913   48.597
| 45> C  -23.049   27.675   47.122
| 46> H  -22.442   27.806   48.026
| 47> H  -22.914   28.560   46.487
| 48> O  -22.586   26.394   46.375
| 49> C  -24.544   27.618   47.541
| 50> C  -24.792   26.507   48.568
| 51> C  -24.291   27.170   49.874
| 52> C  -24.685   28.657   49.687
| 53> O  -24.927   28.849   48.241
| 54> H  -25.165   27.552   46.646
| 55> H  -25.864   26.287   48.633
| 56> O  -24.041   25.189   48.235
| 57> H  -24.738   26.730   50.771
| 58> H  -23.203   27.065   49.955
| 59> H  -23.897   29.343   50.013
| 60> H  -25.613   28.911   50.206
| 61> H  -22.966   25.386   48.166
| 62> *
| 63>
| 64>                          ****END OF INPUT****
 Total Charge           Charge          ....    0
 Multiplicity           Mult            ....    1
 Number of Electrons    NEL             ....  102
FINAL SINGLE POINT ENERGY      -652.808669517804
FINAL SINGLE POINT ENERGY      -652.838848820511
FINAL SINGLE POINT ENERGY      -652.855161010937
FINAL SINGLE POINT ENERGY      -652.858985779647
FINAL SINGLE POINT ENERGY      -652.860413368959
FINAL SINGLE POINT ENERGY      -652.861221543494
FINAL SINGLE POINT ENERGY      -652.861525980903
FINAL SINGLE POINT ENERGY      -652.861597687950
FINAL SINGLE POINT ENERGY      -652.861603462058
                    ***********************HURRAY********************

CARTESIAN COORDINATES (ANGSTROEM)
---------------------------------
  C    -21.149401   26.353343   46.416553
  C    -20.283104   27.500880   45.881209
  C    -19.912590   28.263324   47.185772
  C    -19.775793   27.117563   48.219925
  O    -20.478017   25.948222   47.627623
  H    -21.152778   25.475778   45.769089
  H    -19.391205   27.071627   45.414391
  H    -20.800631   28.121168   45.144512
  H    -18.979372   28.825616   47.081965
  H    -20.693935   28.973906   47.464659
  H    -20.228483   27.348891   49.188496
  H    -18.736528   26.815229   48.374418
  C    -23.078602   27.800698   47.247246
  H    -22.519626   27.994356   48.169491
  H    -22.992295   28.669197   46.585930
  O    -22.568161   26.594462   46.584819
  C    -24.554049   27.556436   47.585566
  C    -24.829779   26.422927   48.590190
  C    -24.486679   27.111745   49.946003
  C    -24.946928   28.566653   49.723044
  O    -25.069057   28.754510   48.246541
  H    -25.123304   27.429608   46.660918
  H    -25.902754   26.201791   48.565313
  O    -24.141319   25.181950   48.371241
  H    -24.995061   26.628276   50.783672
  H    -23.407523   27.038023   50.121845
  H    -24.245611   29.311137   50.113404
  H    -25.937256   28.764130   50.143310
  H    -23.362159   25.338553   47.789857

 Multiplicity           Mult            ....    1
 Number of Electrons    NEL             ....  102
 Basis Dimension        Dim             ....  149

ORBITAL ENERGIES
----------------

  NO   OCC          E(Eh)            E(eV)
   0   2.0000     -19.166675      -521.5517
   1   2.0000     -19.154877      -521.2307
   2   2.0000     -19.140908      -520.8506
   3   2.0000     -19.110487      -520.0228
   4   2.0000     -10.292435      -280.0714
   5   2.0000     -10.241395      -278.6825
   6   2.0000     -10.240210      -278.6503
   7   2.0000     -10.234311      -278.4898
   8   2.0000     -10.229255      -278.3522
   9   2.0000     -10.227397      -278.3016
  10   2.0000     -10.202999      -277.6377
  11   2.0000     -10.202848      -277.6336
  12   2.0000     -10.178931      -276.9828
  13   2.0000      -1.067506       -29.0483
  14   2.0000      -1.026415       -27.9302
  15   2.0000      -1.010672       -27.5018
  16   2.0000      -0.991786       -26.9879
  17   2.0000      -0.800055       -21.7706
  18   2.0000      -0.780361       -21.2347
  19   2.0000      -0.768336       -20.9075
  20   2.0000      -0.738823       -20.1044
  21   2.0000      -0.684538       -18.6272
  22   2.0000      -0.615658       -16.7529
  23   2.0000      -0.603047       -16.4098
  24   2.0000      -0.596314       -16.2265
  25   2.0000      -0.578517       -15.7423
  26   2.0000      -0.524251       -14.2656
  27   2.0000      -0.522747       -14.2247
  28   2.0000      -0.513547       -13.9743
  29   2.0000      -0.486688       -13.2434
  30   2.0000      -0.477060       -12.9815
  31   2.0000      -0.463907       -12.6236
  32   2.0000      -0.442408       -12.0385
  33   2.0000      -0.433479       -11.7956
  34   2.0000      -0.430267       -11.7082
  35   2.0000      -0.425258       -11.5719
  36   2.0000      -0.413030       -11.2391
  37   2.0000      -0.392923       -10.6920
  38   2.0000      -0.389184       -10.5902
  39   2.0000      -0.372442       -10.1347
  40   2.0000      -0.367449        -9.9988
  41   2.0000      -0.362521        -9.8647
  42   2.0000      -0.347612        -9.4590
  43   2.0000      -0.339596        -9.2409
  44   2.0000      -0.324945        -8.8422
  45   2.0000      -0.319152        -8.6846
  46   2.0000      -0.297803        -8.1036
  47   2.0000      -0.276887        -7.5345
  48   2.0000      -0.267242        -7.2720
  49   2.0000      -0.250077        -6.8049
  50   2.0000      -0.239337        -6.5127
  51   0.0000       0.053016         1.4426
  52   0.0000       0.065597         1.7850
  53   0.0000       0.087075         2.3694
  54   0.0000       0.094503         2.5716
  55   0.0000       0.102656         2.7934

MULLIKEN ATOMIC CHARGES
-----------------------
   0 C :    0.301619
   1 C :   -0.281406
   2 C :   -0.319263
   3 C :   -0.014149
   4 O :   -0.502201
   5 H :    0.175191
   6 H :    0.162414
   7 H :    0.155752
   8 H :    0.151361
   9 H :    0.154525
  10 H :    0.148634
  11 H :    0.154407
  12 C :   -0.023982
  13 H :    0.142390
  14 H :    0.156702
  15 O :   -0.547638
  16 C :    0.054511
  17 C :    0.120748
  18 C :   -0.308187
  19 C :   -0.018956
  20 O :   -0.522793
  21 H :    0.163740
  22 H :    0.150351
  23 O :   -0.631685
  24 H :    0.152838
  25 H :    0.144599
  26 H :    0.138194
  27 H :    0.149495
  28 H :    0.392787
Sum of atomic charges:   -0.0000000

LOEWDIN ATOMIC CHARGES
----------------------
   0 C :    0.172301
   1 C :   -0.225646
   2 C :   -0.224773
   3 C :   -0.032938
   4 O :   -0.319029
   5 H :    0.117189
   6 H :    0.125777
   7 H :    0.121744
   8 H :    0.118974
   9 H :    0.112726
  10 H :    0.103957
  11 H :    0.108660
  12 C :   -0.048639
  13 H :    0.098128
  14 H :    0.108714
  15 O :   -0.324987
  16 C :    0.020655
  17 C :    0.042760
  18 C :   -0.239815
  19 C :   -0.032960
  20 O :   -0.325018
  21 H :    0.117580
  22 H :    0.107022
  23 O :   -0.426984
  24 H :    0.122289
  25 H :    0.109774
  26 H :    0.099499
  27 H :    0.106365
  28 H :    0.286677

  Mayer bond orders larger than 0.100000
B(  0-C ,  1-C ) :   0.9274 B(  0-C ,  4-O ) :   0.9119 B(  0-C ,  5-H ) :   0.9332
B(  0-C , 15-O ) :   0.8559 B(  1-C ,  2-C ) :   0.9532 B(  1-C ,  6-H ) :   0.9346
B(  1-C ,  7-H ) :   0.9351 B(  2-C ,  3-C ) :   0.9471 B(  2-C ,  8-H ) :   0.9445
B(  2-C ,  9-H ) :   0.9394 B(  3-C ,  4-O ) :   0.8380 B(  3-C , 10-H ) :   0.9327
B(  3-C , 11-H ) :   0.9382 B( 12-C , 13-H ) :   0.9119 B( 12-C , 14-H ) :   0.9214
B( 12-C , 15-O ) :   0.7941 B( 12-C , 16-C ) :   0.9060 B( 16-C , 17-C ) :   0.9110
B( 16-C , 20-O ) :   0.8554 B( 16-C , 21-H ) :   0.9280 B( 17-C , 18-C ) :   0.8975
B( 17-C , 22-H ) :   0.9300 B( 17-C , 23-O ) :   0.9442 B( 18-C , 19-C ) :   0.9375
B( 18-C , 24-H ) :   0.9447 B( 18-C , 25-H ) :   0.9435 B( 19-C , 20-O ) :   0.8303
B( 19-C , 26-H ) :   0.9348 B( 19-C , 27-H ) :   0.9391 B( 23-O , 28-H ) :   0.7272

FINAL SINGLE POINT ENERGY      -652.861604096303

DIPOLE MOMENT
-------------
                                X             Y             Z
Electronic contribution:     -3.40615      -3.95788      -2.19754
Nuclear contribution   :      4.66747       5.23973       2.10032
                        -----------------------------------------
Total Dipole Moment    :      1.26131       1.28185      -0.09723
                        -----------------------------------------
Magnitude (a.u.)       :      1.80098
Magnitude (Debye)      :      4.57772

Rotational constants in cm-1:     0.046280     0.015931     0.015062
Rotational constants in MHz :  1387.437734   477.609226   451.539069

                             ****ORCA TERMINATED NORMALLY****
TOTAL RUN TIME: 0 days 2 hours 26 minutes 5 seconds 555 msec
