                         Program Version 4.2.0 -  RELEASE  -
|  1> # Test redundant internal optimization
|  2> #
|  3> ! RKS B3LYP  Opt TightSCF SmallPrint
|  4>
|  5> %basis
|  6>         Basis "6-31G"
|  7> end
|  8>
|  9> %geom
| 10> Constraints
| 11> { D 4  0  15  12  300.0   C } # D for Dihedral angle
| 12> { D 0  15  12  16  75.0   C } # D for Dihedral angle
| 13> { D 0  4  3  2   C } # D for Dihedral angle
| 14> { D 4  3  2  1   C } # D for Dihedral angle
| 15> { D 3  2  1  0   C } # D for Dihedral angle
| 16> { D 2  1  0  4   C } # D for Dihedral angle
| 17> { D 1  0  4  3   C } # D for Dihedral angle
| 18> { D 16  20  19  18   C } # D for Dihedral angle
| 19> { D 20  19  18  17   C } # D for Dihedral angle
| 20> { D 19  18  17  16   C } # D for Dihedral angle
| 21> { D 18  17  16  20   C } # D for Dihedral angle
| 22> { D 17  16  20  19   C } # D for Dihedral angle
| 23> { D 15  12  16  20   C } # D for Dihedral angle
| 24> end
| 25> end
| 26>
| 27>
| 28> #%pal
| 29> #nprocs 8
| 30> #end
| 31>
| 32> * xyz 0 1
| 33> C  -21.048   26.222   46.251
| 34> C  -20.361   27.558   45.944
| 35> C  -20.329   28.222   47.341
| 36> C  -20.110   27.022   48.296
| 37> O  -20.473   25.807   47.535
| 38> H  -20.833   25.428   45.533
| 39> H  -19.344   27.382   45.576
| 40> H  -20.898   28.157   45.201
| 41> H  -19.543   28.978   47.434
| 42> H  -21.289   28.710   47.548
| 43> H  -20.733   27.082   49.195
| 44> H  -19.064   26.913   48.597
| 45> C  -23.362   25.116   46.798
| 46> H  -24.430   25.256   46.591
| 47> H  -23.012   24.248   46.225
| 48> O  -22.586   26.394   46.375
| 49> C  -23.196   24.785   48.307
| 50> C  -23.816   25.876   49.187
| 51> C  -25.320   25.519   49.116
| 52> C  -25.311   23.971   49.057
| 53> O  -23.947   23.573   48.651
| 54> H  -22.144   24.579   48.514
| 55> H  -23.445   25.785   50.215
| 56> O  -23.513   27.313   48.683
| 57> H  -25.887   25.901   49.970
| 58> H  -25.763   25.938   48.205
| 59> H  -26.031   23.575   48.333
| 60> H  -25.504   23.515   50.032
| 61> H  -23.875   27.426   47.656
| 62> *
| 63>
| 64>                          ****END OF INPUT****
 Total Charge           Charge          ....    0
 Multiplicity           Mult            ....    1
 Number of Electrons    NEL             ....  102
FINAL SINGLE POINT ENERGY      -652.839583093294
FINAL SINGLE POINT ENERGY      -652.864935280865
FINAL SINGLE POINT ENERGY      -652.870737999230
FINAL SINGLE POINT ENERGY      -652.872595454884
FINAL SINGLE POINT ENERGY      -652.873243155159
FINAL SINGLE POINT ENERGY      -652.873445034309
FINAL SINGLE POINT ENERGY      -652.873481725293
FINAL SINGLE POINT ENERGY      -652.873486322296
                    ***********************HURRAY********************

CARTESIAN COORDINATES (ANGSTROEM)
---------------------------------
  C    -21.072917   26.162309   46.296572
  C    -20.489456   27.531126   45.944107
  C    -20.459713   28.226071   47.325202
  C    -20.132072   27.072891   48.298001
  O    -20.445003   25.816282   47.548437
  H    -20.833035   25.348142   45.604580
  H    -19.477740   27.392948   45.548088
  H    -21.093561   28.059823   45.203830
  H    -19.715121   29.026902   47.371876
  H    -21.435582   28.659216   47.559873
  H    -20.745526   27.099739   49.199687
  H    -19.072596   27.016123   48.559936
  C    -23.276785   25.095898   46.799207
  H    -24.304317   25.307569   46.492093
  H    -22.923211   24.217717   46.243618
  O    -22.517734   26.286445   46.374938
  C    -23.185235   24.797909   48.304326
  C    -23.800186   25.884237   49.203266
  C    -25.320008   25.570512   49.082119
  C    -25.352763   24.030742   48.977842
  O    -23.975900   23.601773   48.591656
  H    -22.153790   24.568671   48.569008
  H    -23.470519   25.735921   50.235563
  O    -23.443962   27.243178   48.853785
  H    -25.883627   25.948603   49.939447
  H    -25.717447   26.053965   48.183101
  H    -26.061301   23.662628   48.229131
  H    -25.571885   23.550003   49.935533
  H    -23.236006   27.283656   47.891181

 Multiplicity           Mult            ....    1
 Number of Electrons    NEL             ....  102
 Basis Dimension        Dim             ....  149

ORBITAL ENERGIES
----------------

  NO   OCC          E(Eh)            E(eV)
   0   2.0000     -19.164044      -521.4802
   1   2.0000     -19.150878      -521.1219
   2   2.0000     -19.137625      -520.7612
   3   2.0000     -19.125254      -520.4246
   4   2.0000     -10.288590      -279.9668
   5   2.0000     -10.235524      -278.5228
   6   2.0000     -10.232300      -278.4350
   7   2.0000     -10.226942      -278.2892
   8   2.0000     -10.225588      -278.2524
   9   2.0000     -10.224931      -278.2345
  10   2.0000     -10.192207      -277.3440
  11   2.0000     -10.188893      -277.2539
  12   2.0000     -10.180937      -277.0374
  13   2.0000      -1.064199       -28.9583
  14   2.0000      -1.023306       -27.8456
  15   2.0000      -1.005235       -27.3538
  16   2.0000      -0.998809       -27.1790
  17   2.0000      -0.795039       -21.6341
  18   2.0000      -0.771379       -20.9903
  19   2.0000      -0.764225       -20.7956
  20   2.0000      -0.734129       -19.9767
  21   2.0000      -0.678093       -18.4518
  22   2.0000      -0.603729       -16.4283
  23   2.0000      -0.598218       -16.2783
  24   2.0000      -0.596151       -16.2221
  25   2.0000      -0.580629       -15.7997
  26   2.0000      -0.524898       -14.2832
  27   2.0000      -0.518798       -14.1172
  28   2.0000      -0.494769       -13.4634
  29   2.0000      -0.487873       -13.2757
  30   2.0000      -0.469992       -12.7891
  31   2.0000      -0.457068       -12.4375
  32   2.0000      -0.440453       -11.9853
  33   2.0000      -0.435405       -11.8480
  34   2.0000      -0.421973       -11.4825
  35   2.0000      -0.409581       -11.1453
  36   2.0000      -0.407564       -11.0904
  37   2.0000      -0.393368       -10.7041
  38   2.0000      -0.380209       -10.3460
  39   2.0000      -0.365427        -9.9438
  40   2.0000      -0.361492        -9.8367
  41   2.0000      -0.354690        -9.6516
  42   2.0000      -0.353376        -9.6159
  43   2.0000      -0.338381        -9.2078
  44   2.0000      -0.334796        -9.1103
  45   2.0000      -0.310694        -8.4544
  46   2.0000      -0.299516        -8.1502
  47   2.0000      -0.279516        -7.6060
  48   2.0000      -0.265881        -7.2350
  49   2.0000      -0.253636        -6.9018
  50   2.0000      -0.238415        -6.4876
  51   0.0000       0.059447         1.6176
  52   0.0000       0.083199         2.2640
  53   0.0000       0.093352         2.5402
  54   0.0000       0.098684         2.6853
  55   0.0000       0.104202         2.8355

MULLIKEN ATOMIC CHARGES
-----------------------
   0 C :    0.292971
   1 C :   -0.265801
   2 C :   -0.310508
   3 C :   -0.019975
   4 O :   -0.511605
   5 H :    0.152495
   6 H :    0.152056
   7 H :    0.160697
   8 H :    0.146836
   9 H :    0.167028
  10 H :    0.172776
  11 H :    0.145852
  12 C :   -0.046473
  13 H :    0.156559
  14 H :    0.156707
  15 O :   -0.542411
  16 C :    0.051732
  17 C :    0.108812
  18 C :   -0.306309
  19 C :   -0.019264
  20 O :   -0.520992
  21 H :    0.194218
  22 H :    0.149991
  23 O :   -0.641317
  24 H :    0.151452
  25 H :    0.143677
  26 H :    0.141385
  27 H :    0.148198
  28 H :    0.391213
Sum of atomic charges:   -0.0000000

LOEWDIN ATOMIC CHARGES
----------------------
   0 C :    0.172346
   1 C :   -0.214286
   2 C :   -0.217489
   3 C :   -0.033301
   4 O :   -0.324883
   5 H :    0.100816
   6 H :    0.118366
   7 H :    0.125837
   8 H :    0.117063
   9 H :    0.120380
  10 H :    0.117066
  11 H :    0.105198
  12 C :   -0.049645
  13 H :    0.112644
  14 H :    0.111663
  15 O :   -0.333877
  16 C :    0.001535
  17 C :    0.040120
  18 C :   -0.238789
  19 C :   -0.033111
  20 O :   -0.323434
  21 H :    0.130201
  22 H :    0.108717
  23 O :   -0.431492
  24 H :    0.120917
  25 H :    0.110130
  26 H :    0.101323
  27 H :    0.105730
  28 H :    0.280255

  Mayer bond orders larger than 0.100000
B(  0-C ,  1-C ) :   0.9479 B(  0-C ,  4-O ) :   0.9145 B(  0-C ,  5-H ) :   0.9207
B(  0-C , 15-O ) :   0.8263 B(  1-C ,  2-C ) :   0.9538 B(  1-C ,  6-H ) :   0.9387
B(  1-C ,  7-H ) :   0.9355 B(  2-C ,  3-C ) :   0.9562 B(  2-C ,  8-H ) :   0.9446
B(  2-C ,  9-H ) :   0.9383 B(  3-C ,  4-O ) :   0.8178 B(  3-C , 10-H ) :   0.9230
B(  3-C , 11-H ) :   0.9393 B( 12-C , 13-H ) :   0.9394 B( 12-C , 14-H ) :   0.9267
B( 12-C , 15-O ) :   0.8043 B( 12-C , 16-C ) :   0.8836 B( 16-C , 17-C ) :   0.9106
B( 16-C , 20-O ) :   0.8371 B( 16-C , 21-H ) :   0.9100 B( 17-C , 18-C ) :   0.9036
B( 17-C , 22-H ) :   0.9355 B( 17-C , 23-O ) :   0.9135 B( 18-C , 19-C ) :   0.9400
B( 18-C , 24-H ) :   0.9445 B( 18-C , 25-H ) :   0.9436 B( 19-C , 20-O ) :   0.8380
B( 19-C , 26-H ) :   0.9337 B( 19-C , 27-H ) :   0.9386 B( 23-O , 28-H ) :   0.7184

FINAL SINGLE POINT ENERGY      -652.873487003347

DIPOLE MOMENT
-------------
                                X             Y             Z
Electronic contribution:      0.48114      -3.03012      -0.26022
Nuclear contribution   :     -0.40266       3.48875      -0.27190
                        -----------------------------------------
Total Dipole Moment    :      0.07847       0.45864      -0.53212
                        -----------------------------------------
Magnitude (a.u.)       :      0.70687
Magnitude (Debye)      :      1.79671

Rotational constants in cm-1:     0.055744     0.016510     0.015362
Rotational constants in MHz :  1671.153616   494.954203   460.536725

                             ****ORCA TERMINATED NORMALLY****
TOTAL RUN TIME: 0 days 0 hours 31 minutes 28 seconds 553 msec
