                         Program Version 4.2.0 -  RELEASE  -
|  1> # Test redundant internal optimization
|  2> #
|  3> ! RKS B3LYP  Opt TightSCF SmallPrint
|  4>
|  5> %basis
|  6>         Basis "6-31G"
|  7> end
|  8>
|  9> %geom
| 10> Constraints
| 11> { D 4  0  15  12  225.0   C } # D for Dihedral angle
| 12> { D 0  15  12  16  285.0   C } # D for Dihedral angle
| 13> { D 0  4  3  2   C } # D for Dihedral angle
| 14> { D 4  3  2  1   C } # D for Dihedral angle
| 15> { D 3  2  1  0   C } # D for Dihedral angle
| 16> { D 2  1  0  4   C } # D for Dihedral angle
| 17> { D 1  0  4  3   C } # D for Dihedral angle
| 18> { D 16  20  19  18   C } # D for Dihedral angle
| 19> { D 20  19  18  17   C } # D for Dihedral angle
| 20> { D 19  18  17  16   C } # D for Dihedral angle
| 21> { D 18  17  16  20   C } # D for Dihedral angle
| 22> { D 17  16  20  19   C } # D for Dihedral angle
| 23> { D 15  12  16  20   C } # D for Dihedral angle
| 24> end
| 25> end
| 26>
| 27>
| 28> #%pal
| 29> #nprocs 8
| 30> #end
| 31>
| 32> * xyz 0 1
| 33> C  -21.048   26.222   46.251
| 34> C  -20.361   27.558   45.944
| 35> C  -20.329   28.222   47.341
| 36> C  -20.110   27.022   48.296
| 37> O  -20.473   25.807   47.535
| 38> H  -20.833   25.428   45.533
| 39> H  -19.344   27.382   45.576
| 40> H  -20.898   28.157   45.201
| 41> H  -19.543   28.978   47.434
| 42> H  -21.289   28.710   47.548
| 43> H  -20.733   27.082   49.195
| 44> H  -19.064   26.913   48.597
| 45> C  -23.415   25.773   45.218
| 46> H  -23.038   24.766   45.002
| 47> H  -24.472   25.689   45.505
| 48> O  -22.586   26.394   46.375
| 49> C  -23.346   26.611   43.912
| 50> C  -24.265   26.034   42.830
| 51> C  -25.648   26.563   43.278
| 52> C  -25.318   27.958   43.865
| 53> O  -23.865   27.964   44.142
| 54> H  -22.302   26.717   43.609
| 55> O  -23.882   26.612   41.440
| 56> H  -24.227   24.941   42.772
| 57> H  -26.370   26.616   42.456
| 58> H  -26.069   25.909   44.051
| 59> H  -25.861   28.161   44.795
| 60> H  -25.514   28.767   43.156
| 61> H  -23.914   27.706   41.475
| 62> *
| 63>
| 64>                          ****END OF INPUT****
 Total Charge           Charge          ....    0
 Multiplicity           Mult            ....    1
 Number of Electrons    NEL             ....  102
FINAL SINGLE POINT ENERGY      -652.832218843589
FINAL SINGLE POINT ENERGY      -652.855172961579
FINAL SINGLE POINT ENERGY      -652.859094760890
FINAL SINGLE POINT ENERGY      -652.859783178725
FINAL SINGLE POINT ENERGY      -652.859872437678
FINAL SINGLE POINT ENERGY      -652.859881233795
                    ***********************HURRAY********************

CARTESIAN COORDINATES (ANGSTROEM)
---------------------------------
  C    -21.060627   26.212303   46.160084
  C    -20.422453   27.575107   45.896156
  C    -20.433586   28.211526   47.306423
  C    -20.183673   27.002643   48.233267
  O    -20.498529   25.799344   47.418764
  H    -20.830025   25.427680   45.430912
  H    -19.394800   27.435629   45.538386
  H    -20.980977   28.162917   45.164604
  H    -19.675939   28.992216   47.422465
  H    -21.417862   28.648210   47.499312
  H    -20.822445   26.999590   49.119678
  H    -19.137172   26.908081   48.538487
  C    -23.326389   25.793126   45.255028
  H    -22.999288   24.765772   45.023092
  H    -24.329058   25.746398   45.687751
  O    -22.500396   26.355347   46.302647
  C    -23.328811   26.618922   43.963603
  C    -24.253064   26.051936   42.876276
  C    -25.634893   26.606469   43.314383
  C    -25.282671   27.998562   43.897679
  O    -23.827835   27.979327   44.183576
  H    -22.307461   26.721437   43.583261
  O    -23.867597   26.537960   41.561129
  H    -24.229887   24.963939   42.796205
  H    -26.315879   26.660313   42.461294
  H    -26.083856   25.956508   44.073439
  H    -25.823498   28.220231   44.822327
  H    -25.460978   28.810070   43.185301
  H    -23.687354   27.500438   41.616472

 Multiplicity           Mult            ....    1
 Number of Electrons    NEL             ....  102
 Basis Dimension        Dim             ....  149

ORBITAL ENERGIES
----------------

  NO   OCC          E(Eh)            E(eV)
   0   2.0000     -19.147051      -521.0177
   1   2.0000     -19.143966      -520.9338
   2   2.0000     -19.138349      -520.7810
   3   2.0000     -19.134646      -520.6802
   4   2.0000     -10.275917      -279.6219
   5   2.0000     -10.248388      -278.8728
   6   2.0000     -10.238931      -278.6155
   7   2.0000     -10.235618      -278.5253
   8   2.0000     -10.235492      -278.5219
   9   2.0000     -10.219320      -278.0818
  10   2.0000     -10.195071      -277.4220
  11   2.0000     -10.179067      -276.9865
  12   2.0000     -10.178578      -276.9732
  13   2.0000      -1.050447       -28.5841
  14   2.0000      -1.040329       -28.3088
  15   2.0000      -1.011208       -27.5164
  16   2.0000      -0.991482       -26.9796
  17   2.0000      -0.789620       -21.4867
  18   2.0000      -0.779604       -21.2141
  19   2.0000      -0.769204       -20.9311
  20   2.0000      -0.731160       -19.8959
  21   2.0000      -0.675713       -18.3871
  22   2.0000      -0.610038       -16.6000
  23   2.0000      -0.604046       -16.4369
  24   2.0000      -0.592534       -16.1237
  25   2.0000      -0.576485       -15.6870
  26   2.0000      -0.528372       -14.3777
  27   2.0000      -0.514858       -14.0100
  28   2.0000      -0.492821       -13.4103
  29   2.0000      -0.490410       -13.3447
  30   2.0000      -0.472771       -12.8647
  31   2.0000      -0.455235       -12.3876
  32   2.0000      -0.453126       -12.3302
  33   2.0000      -0.447226       -12.1696
  34   2.0000      -0.424264       -11.5448
  35   2.0000      -0.414427       -11.2771
  36   2.0000      -0.400346       -10.8940
  37   2.0000      -0.395347       -10.7579
  38   2.0000      -0.377866       -10.2823
  39   2.0000      -0.368494       -10.0272
  40   2.0000      -0.361833        -9.8460
  41   2.0000      -0.351793        -9.5728
  42   2.0000      -0.347530        -9.4568
  43   2.0000      -0.336092        -9.1455
  44   2.0000      -0.315732        -8.5915
  45   2.0000      -0.309587        -8.4243
  46   2.0000      -0.302716        -8.2373
  47   2.0000      -0.276777        -7.5315
  48   2.0000      -0.267183        -7.2704
  49   2.0000      -0.252152        -6.8614
  50   2.0000      -0.237774        -6.4701
  51   0.0000       0.061326         1.6688
  52   0.0000       0.083631         2.2757
  53   0.0000       0.087105         2.3702
  54   0.0000       0.091043         2.4774
  55   0.0000       0.099346         2.7034

MULLIKEN ATOMIC CHARGES
-----------------------
   0 C :    0.280180
   1 C :   -0.261531
   2 C :   -0.301380
   3 C :   -0.001090
   4 O :   -0.504471
   5 H :    0.135552
   6 H :    0.137707
   7 H :    0.166508
   8 H :    0.139190
   9 H :    0.168332
  10 H :    0.151332
  11 H :    0.138901
  12 C :   -0.010127
  13 H :    0.125551
  14 H :    0.153979
  15 O :   -0.496378
  16 C :    0.057429
  17 C :    0.072691
  18 C :   -0.304083
  19 C :   -0.027513
  20 O :   -0.516469
  21 H :    0.158531
  22 O :   -0.598840
  23 H :    0.156153
  24 H :    0.166832
  25 H :    0.148758
  26 H :    0.152983
  27 H :    0.146939
  28 H :    0.364335
Sum of atomic charges:   -0.0000000

LOEWDIN ATOMIC CHARGES
----------------------
   0 C :    0.174614
   1 C :   -0.226174
   2 C :   -0.216116
   3 C :   -0.025957
   4 O :   -0.312157
   5 H :    0.095038
   6 H :    0.110043
   7 H :    0.125357
   8 H :    0.113133
   9 H :    0.122397
  10 H :    0.107772
  11 H :    0.100852
  12 C :   -0.039728
  13 H :    0.094806
  14 H :    0.114448
  15 O :   -0.319464
  16 C :    0.000086
  17 C :    0.034312
  18 C :   -0.242743
  19 C :   -0.036651
  20 O :   -0.326878
  21 H :    0.111900
  22 O :   -0.413042
  23 H :    0.116956
  24 H :    0.128296
  25 H :    0.115088
  26 H :    0.107754
  27 H :    0.102946
  28 H :    0.283111

  Mayer bond orders larger than 0.100000
B(  0-C ,  1-C ) :   0.9362 B(  0-C ,  4-O ) :   0.9335 B(  0-C ,  5-H ) :   0.9169
B(  0-C , 15-O ) :   0.8369 B(  1-C ,  2-C ) :   0.9556 B(  1-C ,  6-H ) :   0.9358
B(  1-C ,  7-H ) :   0.9296 B(  2-C ,  3-C ) :   0.9551 B(  2-C ,  8-H ) :   0.9453
B(  2-C ,  9-H ) :   0.9423 B(  3-C ,  4-O ) :   0.8363 B(  3-C , 10-H ) :   0.9351
B(  3-C , 11-H ) :   0.9399 B( 12-C , 13-H ) :   0.9087 B( 12-C , 14-H ) :   0.9390
B( 12-C , 15-O ) :   0.8770 B( 12-C , 16-C ) :   0.8738 B( 16-C , 17-C ) :   0.8972
B( 16-C , 20-O ) :   0.8574 B( 16-C , 21-H ) :   0.9236 B( 17-C , 18-C ) :   0.9134
B( 17-C , 22-O ) :   0.8936 B( 17-C , 23-H ) :   0.9316 B( 18-C , 19-C ) :   0.9413
B( 18-C , 24-H ) :   0.9365 B( 18-C , 25-H ) :   0.9328 B( 19-C , 20-O ) :   0.8465
B( 19-C , 26-H ) :   0.9336 B( 19-C , 27-H ) :   0.9377 B( 22-O , 28-H ) :   0.7945

FINAL SINGLE POINT ENERGY      -652.859882801346

DIPOLE MOMENT
-------------
                                X             Y             Z
Electronic contribution:      0.31402      -2.04820      -0.78615
Nuclear contribution   :     -0.74748       2.50617       0.52926
                        -----------------------------------------
Total Dipole Moment    :     -0.43346       0.45797      -0.25689
                        -----------------------------------------
Magnitude (a.u.)       :      0.68089
Magnitude (Debye)      :      1.73069

Rotational constants in cm-1:     0.063267     0.012138     0.011922
Rotational constants in MHz :  1896.703780   363.894192   357.424296

                             ****ORCA TERMINATED NORMALLY****
TOTAL RUN TIME: 0 days 0 hours 19 minutes 14 seconds 556 msec
