                         Program Version 4.2.0 -  RELEASE  -
|  1> # Test redundant internal optimization
|  2> #
|  3> ! RKS B3LYP  Opt TightSCF SmallPrint
|  4>
|  5> %basis
|  6>         Basis "6-31G"
|  7> end
|  8>
|  9> %geom
| 10> Constraints
| 11> { D 4  0  15  12  330.0   C } # D for Dihedral angle
| 12> { D 0  15  12  16  210.0   C } # D for Dihedral angle
| 13> { D 0  4  3  2   C } # D for Dihedral angle
| 14> { D 4  3  2  1   C } # D for Dihedral angle
| 15> { D 3  2  1  0   C } # D for Dihedral angle
| 16> { D 2  1  0  4   C } # D for Dihedral angle
| 17> { D 1  0  4  3   C } # D for Dihedral angle
| 18> { D 16  20  19  18   C } # D for Dihedral angle
| 19> { D 20  19  18  17   C } # D for Dihedral angle
| 20> { D 19  18  17  16   C } # D for Dihedral angle
| 21> { D 18  17  16  20   C } # D for Dihedral angle
| 22> { D 17  16  20  19   C } # D for Dihedral angle
| 23> { D 15  12  16  20   C } # D for Dihedral angle
| 24> end
| 25> end
| 26>
| 27>
| 28> #%pal
| 29> #nprocs 8
| 30> #end
| 31>
| 32> * xyz 0 1
| 33> C  -21.048   26.222   46.251
| 34> C  -20.361   27.558   45.944
| 35> C  -20.329   28.222   47.341
| 36> C  -20.110   27.022   48.296
| 37> O  -20.473   25.807   47.535
| 38> H  -20.833   25.428   45.533
| 39> H  -19.344   27.382   45.576
| 40> H  -20.898   28.157   45.201
| 41> H  -19.543   28.978   47.434
| 42> H  -21.289   28.710   47.548
| 43> H  -20.733   27.082   49.195
| 44> H  -19.064   26.913   48.597
| 45> C  -23.271   25.476   47.424
| 46> H  -22.699   24.544   47.517
| 47> H  -23.292   25.965   48.407
| 48> O  -22.586   26.394   46.375
| 49> C  -24.734   25.115   47.043
| 50> C  -25.415   24.307   48.153
| 51> C  -25.788   25.415   49.165
| 52> C  -26.139   26.619   48.255
| 53> O  -25.548   26.330   46.930
| 54> H  -24.740   24.633   46.063
| 55> O  -26.691   23.615   47.601
| 56> H  -24.765   23.538   48.585
| 57> H  -26.619   25.131   49.819
| 58> H  -24.926   25.650   49.801
| 59> H  -25.730   27.563   48.632
| 60> H  -27.217   26.732   48.109
| 61> H  -27.357   24.366   47.163
| 62> *
| 63>
| 64>                          ****END OF INPUT****
 Total Charge           Charge          ....    0
 Multiplicity           Mult            ....    1
 Number of Electrons    NEL             ....  102
FINAL SINGLE POINT ENERGY      -652.834226770418
FINAL SINGLE POINT ENERGY      -652.857391610515
FINAL SINGLE POINT ENERGY      -652.861246287479
FINAL SINGLE POINT ENERGY      -652.861938289765
FINAL SINGLE POINT ENERGY      -652.862033584370
FINAL SINGLE POINT ENERGY      -652.862046238174
                    ***********************HURRAY********************

CARTESIAN COORDINATES (ANGSTROEM)
---------------------------------
  C    -21.135626   26.156603   46.310359
  C    -20.554486   27.522699   45.948137
  C    -20.417120   28.182751   47.336620
  C    -20.042935   27.001759   48.258875
  O    -20.425819   25.769788   47.511957
  H    -20.952818   25.353548   45.589224
  H    -19.576362   27.384827   45.473134
  H    -21.207430   28.077576   45.271243
  H    -19.662706   28.975528   47.353046
  H    -21.377703   28.615060   47.632126
  H    -20.574292   27.013527   49.214417
  H    -18.967685   26.928619   48.446199
  C    -23.179059   25.474691   47.531039
  H    -22.638932   24.525017   47.634210
  H    -23.136207   25.992705   48.497468
  O    -22.565178   26.308646   46.507500
  C    -24.620369   25.198347   47.114639
  C    -25.409531   24.359556   48.130705
  C    -25.863979   25.438874   49.148273
  C    -26.117673   26.676813   48.251585
  O    -25.409806   26.425885   46.974181
  H    -24.614752   24.725290   46.128416
  O    -26.544703   23.711240   47.494126
  H    -24.833031   23.551778   48.583961
  H    -26.756123   25.109634   49.686934
  H    -25.070349   25.631134   49.878636
  H    -25.739778   27.603915   48.693340
  H    -27.177584   26.812269   48.013808
  H    -26.969961   24.345922   46.878841

 Multiplicity           Mult            ....    1
 Number of Electrons    NEL             ....  102
 Basis Dimension        Dim             ....  149

ORBITAL ENERGIES
----------------

  NO   OCC          E(Eh)            E(eV)
   0   2.0000     -19.146843      -521.0121
   1   2.0000     -19.137830      -520.7668
   2   2.0000     -19.137798      -520.7660
   3   2.0000     -19.136956      -520.7430
   4   2.0000     -10.277401      -279.6623
   5   2.0000     -10.241119      -278.6750
   6   2.0000     -10.230967      -278.3988
   7   2.0000     -10.229940      -278.3708
   8   2.0000     -10.228266      -278.3253
   9   2.0000     -10.227784      -278.3121
  10   2.0000     -10.188348      -277.2390
  11   2.0000     -10.187059      -277.2040
  12   2.0000     -10.184131      -277.1243
  13   2.0000      -1.054324       -28.6896
  14   2.0000      -1.033984       -28.1361
  15   2.0000      -1.004184       -27.3252
  16   2.0000      -0.990258       -26.9463
  17   2.0000      -0.791421       -21.5357
  18   2.0000      -0.780836       -21.2476
  19   2.0000      -0.766133       -20.8475
  20   2.0000      -0.731571       -19.9071
  21   2.0000      -0.671188       -18.2639
  22   2.0000      -0.603382       -16.4189
  23   2.0000      -0.601543       -16.3688
  24   2.0000      -0.592063       -16.1109
  25   2.0000      -0.575848       -15.6696
  26   2.0000      -0.526541       -14.3279
  27   2.0000      -0.506254       -13.7759
  28   2.0000      -0.495767       -13.4905
  29   2.0000      -0.491167       -13.3653
  30   2.0000      -0.474418       -12.9096
  31   2.0000      -0.458308       -12.4712
  32   2.0000      -0.451951       -12.2982
  33   2.0000      -0.438406       -11.9296
  34   2.0000      -0.416279       -11.3275
  35   2.0000      -0.411433       -11.1957
  36   2.0000      -0.401833       -10.9344
  37   2.0000      -0.391970       -10.6661
  38   2.0000      -0.371317       -10.1040
  39   2.0000      -0.368422       -10.0253
  40   2.0000      -0.359102        -9.7717
  41   2.0000      -0.357170        -9.7191
  42   2.0000      -0.348567        -9.4850
  43   2.0000      -0.339990        -9.2516
  44   2.0000      -0.323964        -8.8155
  45   2.0000      -0.306303        -8.3349
  46   2.0000      -0.299449        -8.1484
  47   2.0000      -0.269687        -7.3386
  48   2.0000      -0.262252        -7.1363
  49   2.0000      -0.255978        -6.9655
  50   2.0000      -0.238816        -6.4985
  51   0.0000       0.066118         1.7992
  52   0.0000       0.078911         2.1473
  53   0.0000       0.092258         2.5105
  54   0.0000       0.102142         2.7794
  55   0.0000       0.102968         2.8019

MULLIKEN ATOMIC CHARGES
-----------------------
   0 C :    0.291034
   1 C :   -0.258753
   2 C :   -0.302298
   3 C :   -0.012873
   4 O :   -0.515208
   5 H :    0.148652
   6 H :    0.143225
   7 H :    0.166545
   8 H :    0.143956
   9 H :    0.162068
  10 H :    0.142140
  11 H :    0.148478
  12 C :    0.011221
  13 H :    0.148820
  14 H :    0.125441
  15 O :   -0.523274
  16 C :    0.063286
  17 C :    0.078266
  18 C :   -0.294260
  19 C :   -0.026678
  20 O :   -0.511195
  21 H :    0.164383
  22 O :   -0.603669
  23 H :    0.151630
  24 H :    0.161626
  25 H :    0.143247
  26 H :    0.143587
  27 H :    0.145288
  28 H :    0.365314
Sum of atomic charges:   -0.0000000

LOEWDIN ATOMIC CHARGES
----------------------
   0 C :    0.177385
   1 C :   -0.215190
   2 C :   -0.217448
   3 C :   -0.030891
   4 O :   -0.327513
   5 H :    0.098234
   6 H :    0.113133
   7 H :    0.129063
   8 H :    0.115373
   9 H :    0.118998
  10 H :    0.101831
  11 H :    0.105534
  12 C :   -0.038937
  13 H :    0.109047
  14 H :    0.093612
  15 O :   -0.328633
  16 C :    0.015800
  17 C :    0.035316
  18 C :   -0.241284
  19 C :   -0.037968
  20 O :   -0.321531
  21 H :    0.118980
  22 O :   -0.415008
  23 H :    0.115254
  24 H :    0.126091
  25 H :    0.112131
  26 H :    0.103210
  27 H :    0.101898
  28 H :    0.283513

  Mayer bond orders larger than 0.100000
B(  0-C ,  1-C ) :   0.9458 B(  0-C ,  4-O ) :   0.8967 B(  0-C ,  5-H ) :   0.9223
B(  0-C , 15-O ) :   0.8558 B(  1-C ,  2-C ) :   0.9531 B(  1-C ,  6-H ) :   0.9377
B(  1-C ,  7-H ) :   0.9344 B(  2-C ,  3-C ) :   0.9558 B(  2-C ,  8-H ) :   0.9447
B(  2-C ,  9-H ) :   0.9444 B(  3-C ,  4-O ) :   0.8329 B(  3-C , 10-H ) :   0.9350
B(  3-C , 11-H ) :   0.9403 B( 12-C , 13-H ) :   0.9104 B( 12-C , 14-H ) :   0.9241
B( 12-C , 15-O ) :   0.8271 B( 12-C , 16-C ) :   0.9006 B( 16-C , 17-C ) :   0.9002
B( 16-C , 20-O ) :   0.8598 B( 16-C , 21-H ) :   0.9247 B( 17-C , 18-C ) :   0.9118
B( 17-C , 22-O ) :   0.8910 B( 17-C , 23-H ) :   0.9330 B( 18-C , 19-C ) :   0.9394
B( 18-C , 24-H ) :   0.9373 B( 18-C , 25-H ) :   0.9342 B( 19-C , 20-O ) :   0.8539
B( 19-C , 26-H ) :   0.9351 B( 19-C , 27-H ) :   0.9377 B( 22-O , 28-H ) :   0.7934

FINAL SINGLE POINT ENERGY      -652.862048621403

DIPOLE MOMENT
-------------
                                X             Y             Z
Electronic contribution:     -2.44832      -3.55582      -3.27008
Nuclear contribution   :      2.98046       4.30857       3.95581
                        -----------------------------------------
Total Dipole Moment    :      0.53214       0.75275       0.68573
                        -----------------------------------------
Magnitude (a.u.)       :      1.14892
Magnitude (Debye)      :      2.92033

Rotational constants in cm-1:     0.060351     0.012010     0.011776
Rotational constants in MHz :  1809.291830   360.041231   353.043726

                             ****ORCA TERMINATED NORMALLY****
TOTAL RUN TIME: 0 days 0 hours 30 minutes 5 seconds 685 msec
