                         Program Version 4.2.1 -  RELEASE  -
|  1> # Test redundant internal optimization
|  2> #
|  3> ! RKS B3LYP  Opt TightSCF SmallPrint
|  4>
|  5> %basis
|  6>         Basis "6-31G"
|  7> end
|  8>
|  9> %geom
| 10> Constraints
| 11> { D 4  0  19  14  255.0   C } # D for Dihedral angle
| 12> { D 0  19  14  12  300.0   C } # D for Dihedral angle
| 13> { D 0  4  3  2   C } # D for Dihedral angle
| 14> { D 4  3  2  1   C } # D for Dihedral angle
| 15> { D 3  2  1  0   C } # D for Dihedral angle
| 16> { D 2  1  0  4   C } # D for Dihedral angle
| 17> { D 1  0  4  3   C } # D for Dihedral angle
| 18> { D 14  15  16  17   C } # D for Dihedral angle
| 19> { D 15  16  17  12   C } # D for Dihedral angle
| 20> { D 16  17  12  14   C } # D for Dihedral angle
| 21> { D 17  12  14  15   C } # D for Dihedral angle
| 22> { D 12  14  15  16   C } # D for Dihedral angle
| 23> end
| 24> end
| 25>
| 26>
| 27> #%pal
| 28> #nprocs 8
| 29> #end
| 30>
| 31> * xyz 0 1
| 32> C  -21.048   26.222   46.251
| 33> C  -20.361   27.558   45.944
| 34> C  -20.329   28.222   47.341
| 35> C  -20.110   27.022   48.296
| 36> O  -20.473   25.807   47.535
| 37> H  -20.833   25.428   45.533
| 38> H  -19.344   27.382   45.576
| 39> H  -20.898   28.157   45.201
| 40> H  -19.543   28.978   47.434
| 41> H  -21.289   28.710   47.548
| 42> H  -20.733   27.082   49.195
| 43> H  -19.064   26.913   48.597
| 44> C  -22.924   25.231   44.269
| 45> H  -23.687   24.643   43.735
| 46> C  -23.236   25.322   45.767
| 47> C  -22.751   23.944   46.274
| 48> C  -21.516   23.657   45.384
| 49> O  -21.624   24.553   44.212
| 50> H  -22.803   26.195   43.772
| 51> O  -22.472   26.381   46.366
| 52> H  -24.297   25.502   45.975
| 53> H  -22.507   23.945   47.340
| 54> H  -23.529   23.187   46.110
| 55> H  -21.479   22.618   45.039
| 56> H  -20.574   23.896   45.887
| 57> *
| 58>
| 59>                          ****END OF INPUT****
 Total Charge           Charge          ....    0
 Multiplicity           Mult            ....    1
 Number of Electrons    NEL             ....   86
FINAL SINGLE POINT ENERGY      -538.411956275364
FINAL SINGLE POINT ENERGY      -538.431941474634
FINAL SINGLE POINT ENERGY      -538.434499096750
FINAL SINGLE POINT ENERGY      -538.434943829685
FINAL SINGLE POINT ENERGY      -538.435003768417
FINAL SINGLE POINT ENERGY      -538.435023501562
FINAL SINGLE POINT ENERGY      -538.435025027920
                    ***********************HURRAY********************

CARTESIAN COORDINATES (ANGSTROEM)
---------------------------------
  C    -20.810860   26.301424   46.227702
  C    -20.313304   27.731498   46.010417
  C    -20.422239   28.327927   47.435504
  C    -20.066138   27.125705   48.338966
  O    -20.232936   25.917817   47.495361
  H    -20.496290   25.580789   45.475172
  H    -19.269498   27.705106   45.676211
  H    -20.910753   28.267808   45.270627
  H    -19.751500   29.178259   47.589829
  H    -21.449626   28.655849   47.618079
  H    -20.718722   27.039063   49.211698
  H    -19.022624   27.137169   48.668531
  C    -22.915223   25.136679   44.229876
  H    -23.815263   24.683820   43.790115
  C    -23.083759   25.311370   45.743475
  C    -22.807375   23.880670   46.252415
  C    -21.719677   23.353321   45.286599
  O    -21.761090   24.236639   44.087285
  H    -22.679935   26.065350   43.706657
  O    -22.262185   26.360793   46.326889
  H    -24.096975   25.635377   45.997107
  H    -22.477926   23.889884   47.294000
  H    -23.725373   23.287403   46.175972
  H    -21.900727   22.322999   44.963244
  H    -20.714002   23.422281   45.709270

 Multiplicity           Mult            ....    1
 Number of Electrons    NEL             ....   86
 Basis Dimension        Dim             ....  127

ORBITAL ENERGIES
----------------

  NO   OCC          E(Eh)            E(eV)
   0   2.0000     -19.137796      -520.7659
   1   2.0000     -19.137423      -520.7557
   2   2.0000     -19.133571      -520.6509
   3   2.0000     -10.269019      -279.4342
   4   2.0000     -10.240161      -278.6490
   5   2.0000     -10.225479      -278.2494
   6   2.0000     -10.223593      -278.1981
   7   2.0000     -10.219843      -278.0961
   8   2.0000     -10.184543      -277.1355
   9   2.0000     -10.179578      -277.0004
  10   2.0000     -10.178376      -276.9677
  11   2.0000      -1.047367       -28.5003
  12   2.0000      -1.016053       -27.6482
  13   2.0000      -0.986475       -26.8434
  14   2.0000      -0.788091       -21.4450
  15   2.0000      -0.772351       -21.0167
  16   2.0000      -0.742401       -20.2018
  17   2.0000      -0.718537       -19.5524
  18   2.0000      -0.614812       -16.7299
  19   2.0000      -0.601008       -16.3543
  20   2.0000      -0.592024       -16.1098
  21   2.0000      -0.566088       -15.4040
  22   2.0000      -0.521211       -14.1829
  23   2.0000      -0.501296       -13.6410
  24   2.0000      -0.476724       -12.9723
  25   2.0000      -0.475378       -12.9357
  26   2.0000      -0.449127       -12.2214
  27   2.0000      -0.446329       -12.1452
  28   2.0000      -0.420249       -11.4356
  29   2.0000      -0.412701       -11.2302
  30   2.0000      -0.402196       -10.9443
  31   2.0000      -0.393413       -10.7053
  32   2.0000      -0.371065       -10.0972
  33   2.0000      -0.368174       -10.0185
  34   2.0000      -0.354313        -9.6413
  35   2.0000      -0.349900        -9.5213
  36   2.0000      -0.340514        -9.2659
  37   2.0000      -0.315437        -8.5835
  38   2.0000      -0.313881        -8.5411
  39   2.0000      -0.292572        -7.9613
  40   2.0000      -0.266719        -7.2578
  41   2.0000      -0.246234        -6.7004
  42   2.0000      -0.236880        -6.4458
  43   0.0000       0.077231         2.1015
  44   0.0000       0.100408         2.7322
  45   0.0000       0.101980         2.7750
  46   0.0000       0.108040         2.9399
  47   0.0000       0.118647         3.2285

MULLIKEN ATOMIC CHARGES
-----------------------
   0 C :    0.260788
   1 C :   -0.251205
   2 C :   -0.297481
   3 C :   -0.000442
   4 O :   -0.515226
   5 H :    0.181883
   6 H :    0.143019
   7 H :    0.147335
   8 H :    0.137199
   9 H :    0.161102
  10 H :    0.146160
  11 H :    0.139436
  12 C :   -0.022943
  13 H :    0.132785
  14 C :    0.085121
  15 C :   -0.301491
  16 C :   -0.032851
  17 O :   -0.523380
  18 H :    0.160602
  19 O :   -0.524565
  20 H :    0.145332
  21 H :    0.178248
  22 H :    0.144848
  23 H :    0.143092
  24 H :    0.162636
Sum of atomic charges:   -0.0000000

LOEWDIN ATOMIC CHARGES
----------------------
   0 C :    0.163846
   1 C :   -0.215322
   2 C :   -0.216367
   3 C :   -0.027115
   4 O :   -0.327072
   5 H :    0.117335
   6 H :    0.112347
   7 H :    0.118700
   8 H :    0.111854
   9 H :    0.118696
  10 H :    0.104753
  11 H :    0.100882
  12 C :   -0.052616
  13 H :    0.097907
  14 C :    0.042009
  15 C :   -0.238979
  16 C :   -0.039470
  17 O :   -0.339523
  18 H :    0.116556
  19 O :   -0.324621
  20 H :    0.112787
  21 H :    0.135091
  22 H :    0.116053
  23 H :    0.102936
  24 H :    0.109333

  Mayer bond orders larger than 0.100000
B(  0-C ,  1-C ) :   0.9459 B(  0-C ,  4-O ) :   0.9038 B(  0-C ,  5-H ) :   0.8920
B(  0-C , 19-O ) :   0.8311 B(  1-C ,  2-C ) :   0.9566 B(  1-C ,  6-H ) :   0.9400
B(  1-C ,  7-H ) :   0.9390 B(  2-C ,  3-C ) :   0.9551 B(  2-C ,  8-H ) :   0.9459
B(  2-C ,  9-H ) :   0.9439 B(  3-C ,  4-O ) :   0.8386 B(  3-C , 10-H ) :   0.9358
B(  3-C , 11-H ) :   0.9403 B( 12-C , 13-H ) :   0.9150 B( 12-C , 14-C ) :   0.9155
B( 12-C , 17-O ) :   0.8554 B( 12-C , 18-H ) :   0.9327 B( 14-C , 15-C ) :   0.9253
B( 14-C , 19-O ) :   0.8845 B( 14-C , 20-H ) :   0.9386 B( 15-C , 16-C ) :   0.9451
B( 15-C , 21-H ) :   0.9310 B( 15-C , 22-H ) :   0.9374 B( 16-C , 17-O ) :   0.8378
B( 16-C , 23-H ) :   0.9372 B( 16-C , 24-H ) :   0.9303

FINAL SINGLE POINT ENERGY      -538.435025481551

DIPOLE MOMENT
-------------
                                X             Y             Z
Electronic contribution:     -0.22381      -1.52608      -1.07237
Nuclear contribution   :     -0.20762       1.82459       1.28114
                        -----------------------------------------
Total Dipole Moment    :     -0.43143       0.29850       0.20877
                        -----------------------------------------
Magnitude (a.u.)       :      0.56464
Magnitude (Debye)      :      1.43521

Rotational constants in cm-1:     0.077235     0.023366     0.022037
Rotational constants in MHz :  2315.441800   700.485886   660.651924

                             ****ORCA TERMINATED NORMALLY****
TOTAL RUN TIME: 0 days 0 hours 8 minutes 38 seconds 422 msec
