                         Program Version 4.2.0 -  RELEASE  -
|  1> # Test redundant internal optimization
|  2> #
|  3> ! RKS B3LYP  Opt TightSCF SmallPrint
|  4>
|  5> %basis
|  6>         Basis "6-31G"
|  7> end
|  8>
|  9> %geom
| 10> Constraints
| 11> { D 4  0  15  12  225.0   C } # D for Dihedral angle
| 12> { D 0  15  12  16  150.0   C } # D for Dihedral angle
| 13> { D 0  4  3  2   C } # D for Dihedral angle
| 14> { D 4  3  2  1   C } # D for Dihedral angle
| 15> { D 3  2  1  0   C } # D for Dihedral angle
| 16> { D 2  1  0  4   C } # D for Dihedral angle
| 17> { D 1  0  4  3   C } # D for Dihedral angle
| 18> { D 16  20  19  18   C } # D for Dihedral angle
| 19> { D 20  19  18  17   C } # D for Dihedral angle
| 20> { D 19  18  17  16   C } # D for Dihedral angle
| 21> { D 18  17  16  20   C } # D for Dihedral angle
| 22> { D 17  16  20  19   C } # D for Dihedral angle
| 23> { D 15  12  16  20   C } # D for Dihedral angle
| 24> end
| 25> end
| 26>
| 27>
| 28> #%pal
| 29> #nprocs 8
| 30> #end
| 31>
| 32> * xyz 0 1
| 33> C  -21.048   26.222   46.251
| 34> C  -20.361   27.558   45.944
| 35> C  -20.329   28.222   47.341
| 36> C  -20.110   27.022   48.296
| 37> O  -20.473   25.807   47.535
| 38> H  -20.833   25.428   45.533
| 39> H  -19.344   27.382   45.576
| 40> H  -20.898   28.157   45.201
| 41> H  -19.543   28.978   47.434
| 42> H  -21.289   28.710   47.548
| 43> H  -20.733   27.082   49.195
| 44> H  -19.064   26.913   48.597
| 45> C  -23.415   25.773   45.218
| 46> H  -23.543   26.519   44.423
| 47> H  -22.893   24.906   44.794
| 48> O  -22.586   26.394   46.375
| 49> C  -24.823   25.300   45.675
| 50> C  -24.727   24.319   46.849
| 51> C  -24.494   25.279   48.041
| 52> C  -25.336   26.522   47.661
| 53> O  -25.595   26.427   46.207
| 54> H  -25.370   24.917   44.811
| 55> O  -26.069   23.555   47.016
| 56> H  -23.923   23.584   46.733
| 57> H  -24.797   24.847   49.000
| 58> H  -23.431   25.540   48.111
| 59> H  -24.816   27.463   47.872
| 60> H  -26.310   26.536   48.160
| 61> H  -26.889   24.272   47.135
| 62> *
| 63>
| 64>                          ****END OF INPUT****
 Total Charge           Charge          ....    0
 Multiplicity           Mult            ....    1
 Number of Electrons    NEL             ....  102
FINAL SINGLE POINT ENERGY      -652.836162813628
FINAL SINGLE POINT ENERGY      -652.858525219750
FINAL SINGLE POINT ENERGY      -652.862441312583
FINAL SINGLE POINT ENERGY      -652.863643896930
FINAL SINGLE POINT ENERGY      -652.863759931417
FINAL SINGLE POINT ENERGY      -652.863776789242
                    ***********************HURRAY********************

CARTESIAN COORDINATES (ANGSTROEM)
---------------------------------
  C    -21.077305   26.195639   46.192115
  C    -20.392151   27.530085   45.900496
  C    -20.430085   28.217172   47.286087
  C    -20.244529   27.037250   48.264509
  O    -20.567628   25.812501   47.483622
  H    -20.840265   25.383545   45.496795
  H    -19.359151   27.347797   45.581279
  H    -20.905475   28.101683   45.123221
  H    -19.653724   28.979463   47.400400
  H    -21.405356   28.690932   47.432937
  H    -20.909605   27.084894   49.130071
  H    -19.211535   26.925436   48.606460
  C    -23.328850   25.783441   45.223104
  H    -23.468552   26.521229   44.422290
  H    -22.829451   24.897733   44.799507
  O    -22.514987   26.363174   46.280428
  C    -24.701278   25.379048   45.756216
  C    -24.727506   24.342911   46.888971
  C    -24.505384   25.235462   48.139025
  C    -25.252270   26.541185   47.772084
  O    -25.434053   26.522994   46.299748
  H    -25.284156   25.010976   44.902553
  O    -26.008224   23.650548   46.915154
  H    -23.980323   23.555641   46.783468
  H    -24.909056   24.752693   49.033584
  H    -23.437678   25.418540   48.267017
  H    -24.683277   27.434879   48.041217
  H    -26.250593   26.602886   48.217359
  H    -26.729553   24.314262   46.892285

 Multiplicity           Mult            ....    1
 Number of Electrons    NEL             ....  102
 Basis Dimension        Dim             ....  149

ORBITAL ENERGIES
----------------

  NO   OCC          E(Eh)            E(eV)
   0   2.0000     -19.147768      -521.0373
   1   2.0000     -19.145839      -520.9848
   2   2.0000     -19.134733      -520.6826
   3   2.0000     -19.131204      -520.5865
   4   2.0000     -10.285942      -279.8947
   5   2.0000     -10.236824      -278.5581
   6   2.0000     -10.232401      -278.4378
   7   2.0000     -10.231794      -278.4213
   8   2.0000     -10.229289      -278.3531
   9   2.0000     -10.219040      -278.0742
  10   2.0000     -10.189613      -277.2735
  11   2.0000     -10.189391      -277.2674
  12   2.0000     -10.170236      -276.7462
  13   2.0000      -1.058760       -28.8103
  14   2.0000      -1.029222       -28.0066
  15   2.0000      -1.002925       -27.2910
  16   2.0000      -0.994790       -27.0696
  17   2.0000      -0.791361       -21.5340
  18   2.0000      -0.774990       -21.0886
  19   2.0000      -0.760878       -20.7045
  20   2.0000      -0.733769       -19.9669
  21   2.0000      -0.674160       -18.3448
  22   2.0000      -0.603259       -16.4155
  23   2.0000      -0.598883       -16.2964
  24   2.0000      -0.592178       -16.1140
  25   2.0000      -0.578378       -15.7385
  26   2.0000      -0.527465       -14.3530
  27   2.0000      -0.501545       -13.6477
  28   2.0000      -0.500431       -13.6174
  29   2.0000      -0.487799       -13.2737
  30   2.0000      -0.474435       -12.9100
  31   2.0000      -0.452528       -12.3139
  32   2.0000      -0.448299       -12.1988
  33   2.0000      -0.440371       -11.9831
  34   2.0000      -0.424676       -11.5560
  35   2.0000      -0.410720       -11.1763
  36   2.0000      -0.403206       -10.9718
  37   2.0000      -0.383593       -10.4381
  38   2.0000      -0.372475       -10.1356
  39   2.0000      -0.365152        -9.9363
  40   2.0000      -0.360199        -9.8015
  41   2.0000      -0.355929        -9.6853
  42   2.0000      -0.352157        -9.5827
  43   2.0000      -0.325720        -8.8633
  44   2.0000      -0.319216        -8.6863
  45   2.0000      -0.312167        -8.4945
  46   2.0000      -0.299610        -8.1528
  47   2.0000      -0.270764        -7.3679
  48   2.0000      -0.262690        -7.1482
  49   2.0000      -0.254971        -6.9381
  50   2.0000      -0.237781        -6.4703
  51   0.0000       0.066441         1.8080
  52   0.0000       0.082218         2.2373
  53   0.0000       0.088459         2.4071
  54   0.0000       0.103907         2.8275
  55   0.0000       0.109472         2.9789

MULLIKEN ATOMIC CHARGES
-----------------------
   0 C :    0.290107
   1 C :   -0.254697
   2 C :   -0.301636
   3 C :   -0.004406
   4 O :   -0.504863
   5 H :    0.141371
   6 H :    0.144382
   7 H :    0.149716
   8 H :    0.143983
   9 H :    0.164317
  10 H :    0.150791
  11 H :    0.144112
  12 C :    0.006905
  13 H :    0.148038
  14 H :    0.121765
  15 O :   -0.521893
  16 C :    0.068434
  17 C :    0.074439
  18 C :   -0.292121
  19 C :   -0.015871
  20 O :   -0.527548
  21 H :    0.153028
  22 O :   -0.602959
  23 H :    0.152991
  24 H :    0.142361
  25 H :    0.187446
  26 H :    0.146665
  27 H :    0.134075
  28 H :    0.361070
Sum of atomic charges:   -0.0000000

LOEWDIN ATOMIC CHARGES
----------------------
   0 C :    0.177502
   1 C :   -0.223146
   2 C :   -0.216737
   3 C :   -0.027052
   4 O :   -0.314399
   5 H :    0.097836
   6 H :    0.113665
   7 H :    0.119531
   8 H :    0.115434
   9 H :    0.119972
  10 H :    0.106969
  11 H :    0.103534
  12 C :   -0.034637
  13 H :    0.103958
  14 H :    0.095001
  15 O :   -0.331318
  16 C :    0.012838
  17 C :    0.039274
  18 C :   -0.243365
  19 C :   -0.031810
  20 O :   -0.331375
  21 H :    0.114864
  22 O :   -0.417381
  23 H :    0.116709
  24 H :    0.115966
  25 H :    0.135880
  26 H :    0.105981
  27 H :    0.095300
  28 H :    0.281005

  Mayer bond orders larger than 0.100000
B(  0-C ,  1-C ) :   0.9379 B(  0-C ,  4-O ) :   0.9265 B(  0-C ,  5-H ) :   0.9178
B(  0-C , 15-O ) :   0.8350 B(  1-C ,  2-C ) :   0.9554 B(  1-C ,  6-H ) :   0.9349
B(  1-C ,  7-H ) :   0.9380 B(  2-C ,  3-C ) :   0.9547 B(  2-C ,  8-H ) :   0.9448
B(  2-C ,  9-H ) :   0.9431 B(  3-C ,  4-O ) :   0.8350 B(  3-C , 10-H ) :   0.9346
B(  3-C , 11-H ) :   0.9397 B( 12-C , 13-H ) :   0.9191 B( 12-C , 14-H ) :   0.9073
B( 12-C , 15-O ) :   0.8435 B( 12-C , 16-C ) :   0.9088 B( 16-C , 17-C ) :   0.9072
B( 16-C , 20-O ) :   0.8757 B( 16-C , 21-H ) :   0.9207 B( 17-C , 18-C ) :   0.9256
B( 17-C , 22-O ) :   0.8905 B( 17-C , 23-H ) :   0.9352 B( 18-C , 19-C ) :   0.9455
B( 18-C , 24-H ) :   0.9384 B( 18-C , 25-H ) :   0.9116 B( 19-C , 20-O ) :   0.8370
B( 19-C , 26-H ) :   0.9354 B( 19-C , 27-H ) :   0.9379 B( 22-O , 28-H ) :   0.7968

FINAL SINGLE POINT ENERGY      -652.863777018489

DIPOLE MOMENT
-------------
                                X             Y             Z
Electronic contribution:     -3.58793      -3.35650      -1.42600
Nuclear contribution   :      4.49790       4.22144       1.20663
                        -----------------------------------------
Total Dipole Moment    :      0.90997       0.86494      -0.21937
                        -----------------------------------------
Magnitude (a.u.)       :      1.27448
Magnitude (Debye)      :      3.23947

Rotational constants in cm-1:     0.053624     0.014369     0.013974
Rotational constants in MHz :  1607.614946   430.786759   418.935293

                             ****ORCA TERMINATED NORMALLY****
TOTAL RUN TIME: 0 days 0 hours 24 minutes 40 seconds 653 msec
