                         Program Version 4.2.0 -  RELEASE  -
|  1> # Test redundant internal optimization
|  2> #
|  3> ! RKS B3LYP  Opt TightSCF SmallPrint
|  4>
|  5> %basis
|  6>         Basis "6-31G"
|  7> end
|  8>
|  9> %geom
| 10> Constraints
| 11> { D 4  0  15  12  120.0   C } # D for Dihedral angle
| 12> { D 0  15  12  16  195.0   C } # D for Dihedral angle
| 13> { D 0  4  3  2   C } # D for Dihedral angle
| 14> { D 4  3  2  1   C } # D for Dihedral angle
| 15> { D 3  2  1  0   C } # D for Dihedral angle
| 16> { D 2  1  0  4   C } # D for Dihedral angle
| 17> { D 1  0  4  3   C } # D for Dihedral angle
| 18> { D 16  20  19  18   C } # D for Dihedral angle
| 19> { D 20  19  18  17   C } # D for Dihedral angle
| 20> { D 19  18  17  16   C } # D for Dihedral angle
| 21> { D 18  17  16  20   C } # D for Dihedral angle
| 22> { D 17  16  20  19   C } # D for Dihedral angle
| 23> { D 15  12  16  20   C } # D for Dihedral angle
| 24> end
| 25> end
| 26>
| 27>
| 28> #%pal
| 29> #nprocs 8
| 30> #end
| 31>
| 32> * xyz 0 1
| 33> C  -21.048   26.222   46.251
| 34> C  -20.361   27.558   45.944
| 35> C  -20.329   28.222   47.341
| 36> C  -20.110   27.022   48.296
| 37> O  -20.473   25.807   47.535
| 38> H  -20.833   25.428   45.533
| 39> H  -19.344   27.382   45.576
| 40> H  -20.898   28.157   45.201
| 41> H  -19.543   28.978   47.434
| 42> H  -21.289   28.710   47.548
| 43> H  -20.733   27.082   49.195
| 44> H  -19.064   26.913   48.597
| 45> C  -23.119   27.818   46.058
| 46> H  -22.477   28.562   46.546
| 47> H  -23.098   28.004   44.976
| 48> O  -22.586   26.394   46.375
| 49> C  -24.578   28.036   46.547
| 50> C  -25.522   26.972   45.974
| 51> C  -25.230   25.765   46.897
| 52> C  -24.961   26.429   48.270
| 53> O  -24.665   27.852   47.999
| 54> H  -24.876   29.065   46.336
| 55> H  -26.562   27.297   46.081
| 56> O  -25.256   26.663   44.476
| 57> H  -26.057   25.049   46.934
| 58> H  -24.339   25.230   46.546
| 59> H  -24.112   25.978   48.795
| 60> H  -25.837   26.402   48.926
| 61> H  -24.219   26.336   44.346
| 62> *
| 63>
| 64>                          ****END OF INPUT****
 Total Charge           Charge          ....    0
 Multiplicity           Mult            ....    1
 Number of Electrons    NEL             ....  102
FINAL SINGLE POINT ENERGY      -652.820583955677
FINAL SINGLE POINT ENERGY      -652.845543536087
FINAL SINGLE POINT ENERGY      -652.853393716674
FINAL SINGLE POINT ENERGY      -652.855585691146
FINAL SINGLE POINT ENERGY      -652.855920003222
FINAL SINGLE POINT ENERGY      -652.855968987829
FINAL SINGLE POINT ENERGY      -652.855971632324
                    ***********************HURRAY********************

CARTESIAN COORDINATES (ANGSTROEM)
---------------------------------
  C    -21.141017   26.374323   46.308450
  C    -20.225814   27.550354   45.950005
  C    -20.071104   28.272464   47.318824
  C    -20.071797   27.092669   48.320002
  O    -20.653124   25.939188   47.590764
  H    -21.035038   25.509997   45.649543
  H    -19.263491   27.147980   45.618160
  H    -20.617480   28.195457   45.158537
  H    -19.147137   28.856399   47.372810
  H    -20.905893   28.951629   47.510235
  H    -20.673769   27.287148   49.211160
  H    -19.063176   26.796547   48.621373
  C    -23.160191   27.934460   46.064218
  H    -22.619180   28.741492   46.566087
  H    -23.153751   28.127817   44.982329
  O    -22.570629   26.635657   46.358007
  C    -24.603046   27.963893   46.562507
  C    -25.541863   26.910951   45.947174
  C    -25.270744   25.670476   46.852630
  C    -25.028331   26.307856   48.236696
  O    -24.721281   27.743841   47.994982
  H    -24.976342   28.978117   46.372817
  H    -26.578221   27.245677   46.028851
  O    -25.329555   26.679689   44.532396
  H    -26.112367   24.970807   46.852046
  H    -24.371144   25.162427   46.499856
  H    -24.182606   25.856769   48.761368
  H    -25.916540   26.280161   48.875993
  H    -24.514369   26.148754   44.415180

 Multiplicity           Mult            ....    1
 Number of Electrons    NEL             ....  102
 Basis Dimension        Dim             ....  149

ORBITAL ENERGIES
----------------

  NO   OCC          E(Eh)            E(eV)
   0   2.0000     -19.148147      -521.0476
   1   2.0000     -19.143094      -520.9101
   2   2.0000     -19.137308      -520.7526
   3   2.0000     -19.130090      -520.5562
   4   2.0000     -10.286206      -279.9019
   5   2.0000     -10.233568      -278.4695
   6   2.0000     -10.232981      -278.4536
   7   2.0000     -10.229480      -278.3583
   8   2.0000     -10.228685      -278.3367
   9   2.0000     -10.215819      -277.9866
  10   2.0000     -10.199095      -277.5315
  11   2.0000     -10.196375      -277.4575
  12   2.0000     -10.173650      -276.8391
  13   2.0000      -1.055342       -28.7173
  14   2.0000      -1.024261       -27.8716
  15   2.0000      -1.006793       -27.3962
  16   2.0000      -0.996332       -27.1116
  17   2.0000      -0.793833       -21.6013
  18   2.0000      -0.774271       -21.0690
  19   2.0000      -0.762677       -20.7535
  20   2.0000      -0.734568       -19.9886
  21   2.0000      -0.680428       -18.5154
  22   2.0000      -0.609601       -16.5881
  23   2.0000      -0.599544       -16.3144
  24   2.0000      -0.597015       -16.2456
  25   2.0000      -0.561653       -15.2834
  26   2.0000      -0.529362       -14.4047
  27   2.0000      -0.508976       -13.8500
  28   2.0000      -0.502708       -13.6794
  29   2.0000      -0.487570       -13.2675
  30   2.0000      -0.470368       -12.7994
  31   2.0000      -0.457963       -12.4618
  32   2.0000      -0.446652       -12.1540
  33   2.0000      -0.426976       -11.6186
  34   2.0000      -0.420911       -11.4536
  35   2.0000      -0.418107       -11.3773
  36   2.0000      -0.401410       -10.9229
  37   2.0000      -0.397576       -10.8186
  38   2.0000      -0.389259       -10.5923
  39   2.0000      -0.366992        -9.9864
  40   2.0000      -0.364396        -9.9157
  41   2.0000      -0.357333        -9.7235
  42   2.0000      -0.347853        -9.4656
  43   2.0000      -0.323310        -8.7977
  44   2.0000      -0.314959        -8.5705
  45   2.0000      -0.305593        -8.3156
  46   2.0000      -0.295713        -8.0468
  47   2.0000      -0.274641        -7.4734
  48   2.0000      -0.258631        -7.0377
  49   2.0000      -0.256482        -6.9792
  50   2.0000      -0.235704        -6.4138
  51   0.0000       0.063712         1.7337
  52   0.0000       0.084810         2.3078
  53   0.0000       0.091519         2.4904
  54   0.0000       0.095536         2.5997
  55   0.0000       0.105390         2.8678

MULLIKEN ATOMIC CHARGES
-----------------------
   0 C :    0.323509
   1 C :   -0.301166
   2 C :   -0.313013
   3 C :   -0.005011
   4 O :   -0.497264
   5 H :    0.154309
   6 H :    0.158219
   7 H :    0.148041
   8 H :    0.147506
   9 H :    0.163285
  10 H :    0.157865
  11 H :    0.145454
  12 C :   -0.011449
  13 H :    0.139559
  14 H :    0.134262
  15 O :   -0.547908
  16 C :    0.096887
  17 C :    0.088318
  18 C :   -0.312174
  19 C :   -0.007064
  20 O :   -0.524897
  21 H :    0.143218
  22 H :    0.157760
  23 O :   -0.610386
  24 H :    0.141881
  25 H :    0.171288
  26 H :    0.158390
  27 H :    0.138178
  28 H :    0.362401
Sum of atomic charges:   -0.0000000

LOEWDIN ATOMIC CHARGES
----------------------
   0 C :    0.181352
   1 C :   -0.230927
   2 C :   -0.220662
   3 C :   -0.029086
   4 O :   -0.313276
   5 H :    0.104229
   6 H :    0.124044
   7 H :    0.116510
   8 H :    0.117106
   9 H :    0.113981
  10 H :    0.110585
  11 H :    0.104351
  12 C :   -0.045771
  13 H :    0.101374
  14 H :    0.096468
  15 O :   -0.339472
  16 C :    0.021120
  17 C :    0.038375
  18 C :   -0.242679
  19 C :   -0.024780
  20 O :   -0.325033
  21 H :    0.111444
  22 H :    0.114522
  23 O :   -0.413958
  24 H :    0.113532
  25 H :    0.124786
  26 H :    0.111257
  27 H :    0.099189
  28 H :    0.281419

  Mayer bond orders larger than 0.100000
B(  0-C ,  1-C ) :   0.9337 B(  0-C ,  4-O ) :   0.9263 B(  0-C ,  5-H ) :   0.9331
B(  0-C , 15-O ) :   0.8540 B(  1-C ,  2-C ) :   0.9516 B(  1-C ,  6-H ) :   0.9340
B(  1-C ,  7-H ) :   0.9307 B(  2-C ,  3-C ) :   0.9494 B(  2-C ,  8-H ) :   0.9449
B(  2-C ,  9-H ) :   0.9343 B(  3-C ,  4-O ) :   0.8397 B(  3-C , 10-H ) :   0.9332
B(  3-C , 11-H ) :   0.9395 B( 12-C , 13-H ) :   0.9056 B( 12-C , 14-H ) :   0.9054
B( 12-C , 15-O ) :   0.8319 B( 12-C , 16-C ) :   0.9050 B( 16-C , 17-C ) :   0.8863
B( 16-C , 20-O ) :   0.8864 B( 16-C , 21-H ) :   0.9297 B( 17-C , 18-C ) :   0.9349
B( 17-C , 22-H ) :   0.9372 B( 17-C , 23-O ) :   0.8973 B( 18-C , 19-C ) :   0.9460
B( 18-C , 24-H ) :   0.9415 B( 18-C , 25-H ) :   0.9246 B( 19-C , 20-O ) :   0.8321
B( 19-C , 26-H ) :   0.9304 B( 19-C , 27-H ) :   0.9378 B( 23-O , 28-H ) :   0.7940

FINAL SINGLE POINT ENERGY      -652.855970621855

DIPOLE MOMENT
-------------
                                X             Y             Z
Electronic contribution:     -2.91809      -1.76082      -0.57213
Nuclear contribution   :      3.97552       2.16755       0.30946
                        -----------------------------------------
Total Dipole Moment    :      1.05743       0.40674      -0.26268
                        -----------------------------------------
Magnitude (a.u.)       :      1.16301
Magnitude (Debye)      :      2.95614

Rotational constants in cm-1:     0.048288     0.016149     0.014904
Rotational constants in MHz :  1447.638098   484.123200   446.818891

                             ****ORCA TERMINATED NORMALLY****
TOTAL RUN TIME: 0 days 0 hours 50 minutes 54 seconds 615 msec
