                         Program Version 4.2.0 -  RELEASE  -
|  1> # Test redundant internal optimization
|  2> #
|  3> ! RKS B3LYP  Opt TightSCF SmallPrint
|  4>
|  5> %basis
|  6>         Basis "6-31G"
|  7> end
|  8>
|  9> %geom
| 10> Constraints
| 11> { D 4  0  15  12  330.0   C } # D for Dihedral angle
| 12> { D 0  15  12  16  75.0   C } # D for Dihedral angle
| 13> { D 0  4  3  2   C } # D for Dihedral angle
| 14> { D 4  3  2  1   C } # D for Dihedral angle
| 15> { D 3  2  1  0   C } # D for Dihedral angle
| 16> { D 2  1  0  4   C } # D for Dihedral angle
| 17> { D 1  0  4  3   C } # D for Dihedral angle
| 18> { D 16  20  19  18   C } # D for Dihedral angle
| 19> { D 20  19  18  17   C } # D for Dihedral angle
| 20> { D 19  18  17  16   C } # D for Dihedral angle
| 21> { D 18  17  16  20   C } # D for Dihedral angle
| 22> { D 17  16  20  19   C } # D for Dihedral angle
| 23> { D 15  12  16  20   C } # D for Dihedral angle
| 24> end
| 25> end
| 26>
| 27>
| 28> #%pal
| 29> #nprocs 8
| 30> #end
| 31>
| 32> * xyz 0 1
| 33> C  -21.048   26.222   46.251
| 34> C  -20.361   27.558   45.944
| 35> C  -20.329   28.222   47.341
| 36> C  -20.110   27.022   48.296
| 37> O  -20.473   25.807   47.535
| 38> H  -20.833   25.428   45.533
| 39> H  -19.344   27.382   45.576
| 40> H  -20.898   28.157   45.201
| 41> H  -19.543   28.978   47.434
| 42> H  -21.289   28.710   47.548
| 43> H  -20.733   27.082   49.195
| 44> H  -19.064   26.913   48.597
| 45> C  -23.271   25.476   47.424
| 46> H  -24.353   25.467   47.246
| 47> H  -22.900   24.446   47.333
| 48> O  -22.586   26.394   46.375
| 49> C  -23.020   25.941   48.885
| 50> C  -23.658   27.309   49.150
| 51> C  -25.142   26.927   49.364
| 52> C  -25.052   25.554   50.077
| 53> O  -23.687   25.042   49.832
| 54> H  -21.950   25.893   49.097
| 55> H  -23.238   27.750   50.062
| 56> O  -23.457   28.314   47.983
| 57> H  -25.691   27.668   49.953
| 58> H  -25.648   26.827   48.396
| 59> H  -25.781   24.833   49.693
| 60> H  -25.175   25.638   51.160
| 61> H  -23.871   27.893   47.060
| 62> *
| 63>
| 64>                          ****END OF INPUT****
 Total Charge           Charge          ....    0
 Multiplicity           Mult            ....    1
 Number of Electrons    NEL             ....  102
FINAL SINGLE POINT ENERGY      -652.829866269937
FINAL SINGLE POINT ENERGY      -652.854753712461
FINAL SINGLE POINT ENERGY      -652.862943228708
FINAL SINGLE POINT ENERGY      -652.865950209777
FINAL SINGLE POINT ENERGY      -652.866995179338
FINAL SINGLE POINT ENERGY      -652.867323236632
FINAL SINGLE POINT ENERGY      -652.867418077178
FINAL SINGLE POINT ENERGY      -652.867434696884
                    ***********************HURRAY********************

CARTESIAN COORDINATES (ANGSTROEM)
---------------------------------
  C    -21.075082   26.207057   46.357618
  C    -20.489027   27.547858   45.911178
  C    -20.297145   28.275386   47.264278
  C    -19.907351   27.135483   48.228717
  O    -20.334654   25.871474   47.546184
  H    -20.878345   25.380659   45.666147
  H    -19.529577   27.359519   45.417647
  H    -21.145332   28.082800   45.220648
  H    -19.523632   29.048053   47.211425
  H    -21.231113   28.740126   47.588383
  H    -20.403948   27.202255   49.199313
  H    -18.828662   27.042720   48.380166
  C    -23.230120   25.449192   47.477726
  H    -24.272813   25.478815   47.150187
  H    -22.876315   24.413690   47.409067
  O    -22.530644   26.286881   46.486556
  C    -23.087196   25.913964   48.932130
  C    -23.719208   27.288585   49.212613
  C    -25.230497   26.926410   49.319077
  C    -25.208193   25.530431   49.978372
  O    -23.826616   24.996047   49.796727
  H    -22.045228   25.841953   49.237604
  H    -23.357743   27.679032   50.168142
  O    -23.438430   28.308095   48.222861
  H    -25.784141   27.663852   49.906417
  H    -25.667794   26.903405   48.315150
  H    -25.919647   24.829033   49.531126
  H    -25.386541   25.572806   51.056766
  H    -23.280008   27.877420   47.348772

 Multiplicity           Mult            ....    1
 Number of Electrons    NEL             ....  102
 Basis Dimension        Dim             ....  149

ORBITAL ENERGIES
----------------

  NO   OCC          E(Eh)            E(eV)
   0   2.0000     -19.160435      -521.3819
   1   2.0000     -19.156054      -521.2627
   2   2.0000     -19.141105      -520.8559
   3   2.0000     -19.129787      -520.5480
   4   2.0000     -10.287326      -279.9324
   5   2.0000     -10.236859      -278.5591
   6   2.0000     -10.235705      -278.5277
   7   2.0000     -10.231994      -278.4267
   8   2.0000     -10.230123      -278.3758
   9   2.0000     -10.228555      -278.3331
  10   2.0000     -10.191519      -277.3253
  11   2.0000     -10.184370      -277.1308
  12   2.0000     -10.184260      -277.1278
  13   2.0000      -1.061154       -28.8755
  14   2.0000      -1.027409       -27.9572
  15   2.0000      -1.007718       -27.4214
  16   2.0000      -1.000387       -27.2219
  17   2.0000      -0.793572       -21.5942
  18   2.0000      -0.774743       -21.0818
  19   2.0000      -0.767881       -20.8951
  20   2.0000      -0.735552       -20.0154
  21   2.0000      -0.681009       -18.5312
  22   2.0000      -0.603475       -16.4214
  23   2.0000      -0.600606       -16.3433
  24   2.0000      -0.599427       -16.3112
  25   2.0000      -0.579528       -15.7698
  26   2.0000      -0.528850       -14.3908
  27   2.0000      -0.513953       -13.9854
  28   2.0000      -0.497810       -13.5461
  29   2.0000      -0.489094       -13.3089
  30   2.0000      -0.474655       -12.9160
  31   2.0000      -0.458914       -12.4877
  32   2.0000      -0.444864       -12.1054
  33   2.0000      -0.430552       -11.7159
  34   2.0000      -0.424820       -11.5599
  35   2.0000      -0.411631       -11.2010
  36   2.0000      -0.409501       -11.1431
  37   2.0000      -0.395708       -10.7678
  38   2.0000      -0.380786       -10.3617
  39   2.0000      -0.367409        -9.9977
  40   2.0000      -0.362387        -9.8610
  41   2.0000      -0.357529        -9.7289
  42   2.0000      -0.354944        -9.6585
  43   2.0000      -0.340792        -9.2734
  44   2.0000      -0.332519        -9.0483
  45   2.0000      -0.313922        -8.5422
  46   2.0000      -0.300074        -8.1654
  47   2.0000      -0.276355        -7.5200
  48   2.0000      -0.270173        -7.3518
  49   2.0000      -0.256696        -6.9850
  50   2.0000      -0.240687        -6.5494
  51   0.0000       0.058536         1.5928
  52   0.0000       0.079270         2.1571
  53   0.0000       0.087303         2.3756
  54   0.0000       0.095522         2.5993
  55   0.0000       0.105177         2.8620

MULLIKEN ATOMIC CHARGES
-----------------------
   0 C :    0.309986
   1 C :   -0.276113
   2 C :   -0.327000
   3 C :   -0.023583
   4 O :   -0.511781
   5 H :    0.157126
   6 H :    0.152955
   7 H :    0.160729
   8 H :    0.144201
   9 H :    0.188883
  10 H :    0.148127
  11 H :    0.153779
  12 C :   -0.042581
  13 H :    0.157886
  14 H :    0.166122
  15 O :   -0.554304
  16 C :    0.052711
  17 C :    0.107459
  18 C :   -0.308216
  19 C :   -0.023760
  20 O :   -0.519412
  21 H :    0.182926
  22 H :    0.148282
  23 O :   -0.628334
  24 H :    0.153853
  25 H :    0.147641
  26 H :    0.144238
  27 H :    0.151413
  28 H :    0.386767
Sum of atomic charges:    0.0000000

LOEWDIN ATOMIC CHARGES
----------------------
   0 C :    0.177796
   1 C :   -0.216320
   2 C :   -0.230074
   3 C :   -0.032302
   4 O :   -0.321317
   5 H :    0.101222
   6 H :    0.118520
   7 H :    0.125312
   8 H :    0.116528
   9 H :    0.130603
  10 H :    0.103751
  11 H :    0.108036
  12 C :   -0.048180
  13 H :    0.112738
  14 H :    0.116901
  15 O :   -0.343067
  16 C :    0.004134
  17 C :    0.038191
  18 C :   -0.238885
  19 C :   -0.034237
  20 O :   -0.320331
  21 H :    0.124500
  22 H :    0.108143
  23 O :   -0.427399
  24 H :    0.122218
  25 H :    0.112037
  26 H :    0.102771
  27 H :    0.106864
  28 H :    0.281844

  Mayer bond orders larger than 0.100000
B(  0-C ,  1-C ) :   0.9412 B(  0-C ,  4-O ) :   0.9173 B(  0-C ,  5-H ) :   0.9269
B(  0-C , 15-O ) :   0.8164 B(  1-C ,  2-C ) :   0.9545 B(  1-C ,  6-H ) :   0.9375
B(  1-C ,  7-H ) :   0.9358 B(  2-C ,  3-C ) :   0.9546 B(  2-C ,  8-H ) :   0.9434
B(  2-C ,  9-H ) :   0.9098 B(  3-C ,  4-O ) :   0.8197 B(  3-C , 10-H ) :   0.9270
B(  3-C , 11-H ) :   0.9413 B( 12-C , 13-H ) :   0.9386 B( 12-C , 14-H ) :   0.9268
B( 12-C , 15-O ) :   0.7984 B( 12-C , 16-C ) :   0.8829 B( 16-C , 17-C ) :   0.9055
B( 16-C , 20-O ) :   0.8414 B( 16-C , 21-H ) :   0.9129 B( 17-C , 18-C ) :   0.9046
B( 17-C , 22-H ) :   0.9356 B( 17-C , 23-O ) :   0.9104 B( 18-C , 19-C ) :   0.9412
B( 18-C , 24-H ) :   0.9438 B( 18-C , 25-H ) :   0.9424 B( 19-C , 20-O ) :   0.8365
B( 19-C , 26-H ) :   0.9331 B( 19-C , 27-H ) :   0.9381 B( 23-O , 28-H ) :   0.7216

FINAL SINGLE POINT ENERGY      -652.867436056869

DIPOLE MOMENT
-------------
                                X             Y             Z
Electronic contribution:      0.22610      -3.05436      -0.25681
Nuclear contribution   :     -0.19351       3.36118      -0.02988
                        -----------------------------------------
Total Dipole Moment    :      0.03259       0.30682      -0.28668
                        -----------------------------------------
Magnitude (a.u.)       :      0.42117
Magnitude (Debye)      :      1.07054

Rotational constants in cm-1:     0.051739     0.017206     0.016217
Rotational constants in MHz :  1551.093833   515.813002   486.175482

                             ****ORCA TERMINATED NORMALLY****
TOTAL RUN TIME: 0 days 0 hours 26 minutes 44 seconds 727 msec
