                         Program Version 4.2.1 -  RELEASE  -
|  1> # Test redundant internal optimization
|  2> #
|  3> ! RKS B3LYP  Opt TightSCF SmallPrint
|  4>
|  5> %basis
|  6>         Basis "6-31G"
|  7> end
|  8>
|  9> %geom
| 10> Constraints
| 11> { D 4  0  19  14  75.0   C } # D for Dihedral angle
| 12> { D 0  19  14  12  180.0   C } # D for Dihedral angle
| 13> { D 0  4  3  2   C } # D for Dihedral angle
| 14> { D 4  3  2  1   C } # D for Dihedral angle
| 15> { D 3  2  1  0   C } # D for Dihedral angle
| 16> { D 2  1  0  4   C } # D for Dihedral angle
| 17> { D 1  0  4  3   C } # D for Dihedral angle
| 18> { D 14  15  16  17   C } # D for Dihedral angle
| 19> { D 15  16  17  12   C } # D for Dihedral angle
| 20> { D 16  17  12  14   C } # D for Dihedral angle
| 21> { D 17  12  14  15   C } # D for Dihedral angle
| 22> { D 12  14  15  16   C } # D for Dihedral angle
| 23> end
| 24> end
| 25>
| 26>
| 27> #%pal
| 28> #nprocs 8
| 29> #end
| 30>
| 31> * xyz 0 1
| 32> C  -21.048   26.222   46.251
| 33> C  -20.361   27.558   45.944
| 34> C  -20.329   28.222   47.341
| 35> C  -20.110   27.022   48.296
| 36> O  -20.473   25.807   47.535
| 37> H  -20.833   25.428   45.533
| 38> H  -19.344   27.382   45.576
| 39> H  -20.898   28.157   45.201
| 40> H  -19.543   28.978   47.434
| 41> H  -21.289   28.710   47.548
| 42> H  -20.733   27.082   49.195
| 43> H  -19.064   26.913   48.597
| 44> C  -24.411   27.641   47.125
| 45> H  -24.755   28.655   47.382
| 46> C  -22.881   27.571   47.060
| 47> C  -22.506   27.486   48.557
| 48> C  -23.659   26.647   49.163
| 49> O  -24.771   26.695   48.187
| 50> H  -24.919   27.310   46.218
| 51> O  -22.472   26.381   46.366
| 52> H  -22.432   28.435   46.558
| 53> H  -21.525   27.030   48.725
| 54> H  -22.487   28.491   48.999
| 55> H  -24.007   27.041   50.123
| 56> H  -23.387   25.594   49.290
| 57> *
| 58>
| 59>                          ****END OF INPUT****
 Total Charge           Charge          ....    0
 Multiplicity           Mult            ....    1
 Number of Electrons    NEL             ....   86
FINAL SINGLE POINT ENERGY      -538.287504497202
FINAL SINGLE POINT ENERGY      -538.412976529921
FINAL SINGLE POINT ENERGY      -538.420109915725
FINAL SINGLE POINT ENERGY      -538.422176820308
FINAL SINGLE POINT ENERGY      -538.422875847863
FINAL SINGLE POINT ENERGY      -538.423441680261
FINAL SINGLE POINT ENERGY      -538.423631583206
FINAL SINGLE POINT ENERGY      -538.423700037976
FINAL SINGLE POINT ENERGY      -538.423718114207
FINAL SINGLE POINT ENERGY      -538.423719984718
                    ***********************HURRAY********************

CARTESIAN COORDINATES (ANGSTROEM)
---------------------------------
  C    -21.070957   26.374083   46.374094
  C    -20.208251   27.548882   45.889130
  C    -19.773254   28.208879   47.231181
  C    -19.613514   26.983789   48.169584
  O    -20.353066   25.871957   47.527448
  H    -21.071095   25.540092   45.669795
  H    -19.339223   27.149207   45.356555
  H    -20.747487   28.226918   45.222309
  H    -18.842072   28.776008   47.140138
  H    -20.546413   28.892389   47.596314
  H    -20.001199   27.153982   49.178286
  H    -18.571221   26.659710   48.249735
  C    -24.616655   27.481069   47.068110
  H    -25.173666   28.408222   47.271349
  C    -23.113626   27.708953   47.224066
  C    -22.945523   27.640362   48.752423
  C    -23.981049   26.575818   49.180443
  O    -24.932686   26.445875   48.053615
  H    -24.879852   27.093792   46.083525
  O    -22.488091   26.597271   46.509906
  H    -22.784880   28.667516   46.801005
  H    -21.938994   27.376825   49.066451
  H    -23.191967   28.621581   49.177711
  H    -24.528710   26.860740   50.085394
  H    -23.523549   25.594079   49.325432

 Multiplicity           Mult            ....    1
 Number of Electrons    NEL             ....   86
 Basis Dimension        Dim             ....  127

ORBITAL ENERGIES
----------------

  NO   OCC          E(Eh)            E(eV)
   0   2.0000     -19.145706      -520.9811
   1   2.0000     -19.142796      -520.9020
   2   2.0000     -19.124469      -520.4033
   3   2.0000     -10.279511      -279.7197
   4   2.0000     -10.243574      -278.7418
   5   2.0000     -10.233670      -278.4723
   6   2.0000     -10.220117      -278.1035
   7   2.0000     -10.216998      -278.0187
   8   2.0000     -10.197622      -277.4914
   9   2.0000     -10.193487      -277.3789
  10   2.0000     -10.186077      -277.1772
  11   2.0000      -1.051609       -28.6157
  12   2.0000      -1.013719       -27.5847
  13   2.0000      -0.991698       -26.9855
  14   2.0000      -0.792417       -21.5628
  15   2.0000      -0.787531       -21.4298
  16   2.0000      -0.743085       -20.2204
  17   2.0000      -0.723326       -19.6827
  18   2.0000      -0.624897       -17.0043
  19   2.0000      -0.607790       -16.5388
  20   2.0000      -0.598133       -16.2760
  21   2.0000      -0.561688       -15.2843
  22   2.0000      -0.521086       -14.1795
  23   2.0000      -0.508852       -13.8466
  24   2.0000      -0.489598       -13.3226
  25   2.0000      -0.484410       -13.1815
  26   2.0000      -0.453109       -12.3297
  27   2.0000      -0.447674       -12.1818
  28   2.0000      -0.428831       -11.6691
  29   2.0000      -0.415246       -11.2994
  30   2.0000      -0.409614       -11.1462
  31   2.0000      -0.387378       -10.5411
  32   2.0000      -0.381398       -10.3784
  33   2.0000      -0.367390        -9.9972
  34   2.0000      -0.365579        -9.9479
  35   2.0000      -0.362705        -9.8697
  36   2.0000      -0.345501        -9.4015
  37   2.0000      -0.319598        -8.6967
  38   2.0000      -0.302354        -8.2275
  39   2.0000      -0.293672        -7.9912
  40   2.0000      -0.266770        -7.2592
  41   2.0000      -0.258979        -7.0472
  42   2.0000      -0.230513        -6.2726
  43   0.0000       0.066004         1.7961
  44   0.0000       0.086896         2.3646
  45   0.0000       0.094251         2.5647
  46   0.0000       0.110843         3.0162
  47   0.0000       0.114064         3.1038

MULLIKEN ATOMIC CHARGES
-----------------------
   0 C :    0.308000
   1 C :   -0.282500
   2 C :   -0.314079
   3 C :   -0.017804
   4 O :   -0.503592
   5 H :    0.170605
   6 H :    0.157236
   7 H :    0.148650
   8 H :    0.148053
   9 H :    0.148614
  10 H :    0.141947
  11 H :    0.149646
  12 C :    0.009148
  13 H :    0.122323
  14 C :    0.069687
  15 C :   -0.301333
  16 C :    0.005497
  17 O :   -0.517643
  18 H :    0.167652
  19 O :   -0.519771
  20 H :    0.121587
  21 H :    0.161757
  22 H :    0.133789
  23 H :    0.132004
  24 H :    0.160528
Sum of atomic charges:    0.0000000

LOEWDIN ATOMIC CHARGES
----------------------
   0 C :    0.174834
   1 C :   -0.229269
   2 C :   -0.223919
   3 C :   -0.036982
   4 O :   -0.319736
   5 H :    0.115190
   6 H :    0.122333
   7 H :    0.117896
   8 H :    0.117155
   9 H :    0.108497
  10 H :    0.097545
  11 H :    0.105584
  12 C :   -0.031947
  13 H :    0.089606
  14 C :    0.037367
  15 C :   -0.237854
  16 C :   -0.025513
  17 O :   -0.326668
  18 H :    0.123794
  19 O :   -0.313854
  20 H :    0.091671
  21 H :    0.125143
  22 H :    0.109909
  23 H :    0.097114
  24 H :    0.112103

  Mayer bond orders larger than 0.100000
B(  0-C ,  1-C ) :   0.9164 B(  0-C ,  4-O ) :   0.8941 B(  0-C ,  5-H ) :   0.9368
B(  0-C , 19-O ) :   0.9077 B(  1-C ,  2-C ) :   0.9554 B(  1-C ,  6-H ) :   0.9359
B(  1-C ,  7-H ) :   0.9369 B(  2-C ,  3-C ) :   0.9488 B(  2-C ,  8-H ) :   0.9448
B(  2-C ,  9-H ) :   0.9413 B(  3-C ,  4-O ) :   0.8473 B(  3-C , 10-H ) :   0.9195
B(  3-C , 11-H ) :   0.9382 B( 12-C , 13-H ) :   0.9153 B( 12-C , 14-C ) :   0.9351
B( 12-C , 17-O ) :   0.8745 B( 12-C , 18-H ) :   0.9299 B( 14-C , 15-C ) :   0.9330
B( 14-C , 19-O ) :   0.8308 B( 14-C , 20-H ) :   0.9174 B( 15-C , 16-C ) :   0.9433
B( 15-C , 21-H ) :   0.9220 B( 15-C , 22-H ) :   0.9365 B( 16-C , 17-O ) :   0.8579
B( 16-C , 23-H ) :   0.9332 B( 16-C , 24-H ) :   0.9345

FINAL SINGLE POINT ENERGY      -538.423707641877

DIPOLE MOMENT
-------------
                                X             Y             Z
Electronic contribution:     -2.99818      -4.60016      -1.63431
Nuclear contribution   :      4.10315       6.22204       1.69570
                        -----------------------------------------
Total Dipole Moment    :      1.10497       1.62188       0.06138
                        -----------------------------------------
Magnitude (a.u.)       :      1.96348
Magnitude (Debye)      :      4.99076

Rotational constants in cm-1:     0.073530     0.024286     0.022566
Rotational constants in MHz :  2204.380452   728.078403   676.497792

                             ****ORCA TERMINATED NORMALLY****
TOTAL RUN TIME: 0 days 0 hours 12 minutes 12 seconds 870 msec
