                         Program Version 4.2.0 -  RELEASE  -
|  1> # Test redundant internal optimization
|  2> #
|  3> ! RKS B3LYP  Opt TightSCF SmallPrint
|  4>
|  5> %basis
|  6>         Basis "6-31G"
|  7> end
|  8>
|  9> %geom
| 10> Constraints
| 11> { D 4  0  15  12  30.0   C } # D for Dihedral angle
| 12> { D 0  15  12  16  180.0   C } # D for Dihedral angle
| 13> { D 0  4  3  2   C } # D for Dihedral angle
| 14> { D 4  3  2  1   C } # D for Dihedral angle
| 15> { D 3  2  1  0   C } # D for Dihedral angle
| 16> { D 2  1  0  4   C } # D for Dihedral angle
| 17> { D 1  0  4  3   C } # D for Dihedral angle
| 18> { D 16  20  19  18   C } # D for Dihedral angle
| 19> { D 20  19  18  17   C } # D for Dihedral angle
| 20> { D 19  18  17  16   C } # D for Dihedral angle
| 21> { D 18  17  16  20   C } # D for Dihedral angle
| 22> { D 17  16  20  19   C } # D for Dihedral angle
| 23> { D 15  12  16  20   C } # D for Dihedral angle
| 24> end
| 25> end
| 26>
| 27>
| 28> #%pal
| 29> #nprocs 8
| 30> #end
| 31>
| 32> * xyz 0 1
| 33> C  -21.048   26.222   46.251
| 34> C  -20.361   27.558   45.944
| 35> C  -20.329   28.222   47.341
| 36> C  -20.110   27.022   48.296
| 37> O  -20.473   25.807   47.535
| 38> H  -20.833   25.428   45.533
| 39> H  -19.344   27.382   45.576
| 40> H  -20.898   28.157   45.201
| 41> H  -19.543   28.978   47.434
| 42> H  -21.289   28.710   47.548
| 43> H  -20.733   27.082   49.195
| 44> H  -19.064   26.913   48.597
| 45> C  -23.091   26.824   47.779
| 46> H  -22.791   26.071   48.518
| 47> H  -22.648   27.785   48.070
| 48> O  -22.586   26.394   46.375
| 49> C  -24.636   26.979   47.840
| 50> C  -25.340   25.637   47.613
| 51> C  -25.198   24.969   49.002
| 52> C  -25.314   26.165   49.980
| 53> O  -25.058   27.385   49.185
| 54> H  -24.943   27.772   47.156
| 55> H  -26.396   25.802   47.370
| 56> O  -24.701   24.797   46.473
| 57> H  -25.959   24.205   49.185
| 58> H  -24.215   24.492   49.091
| 59> H  -24.588   26.111   50.798
| 60> H  -26.317   26.261   50.404
| 61> H  -23.643   24.620   46.696
| 62> *
| 63>
| 64>                          ****END OF INPUT****
 Total Charge           Charge          ....    0
 Multiplicity           Mult            ....    1
 Number of Electrons    NEL             ....  102
FINAL SINGLE POINT ENERGY      -652.824112338185
FINAL SINGLE POINT ENERGY      -652.849549413135
FINAL SINGLE POINT ENERGY      -652.857449175263
FINAL SINGLE POINT ENERGY      -652.860868350609
FINAL SINGLE POINT ENERGY      -652.862375163740
FINAL SINGLE POINT ENERGY      -652.863338898810
FINAL SINGLE POINT ENERGY      -652.863735760611
FINAL SINGLE POINT ENERGY      -652.863829727830
FINAL SINGLE POINT ENERGY      -652.863846862849
                    ***********************HURRAY********************

CARTESIAN COORDINATES (ANGSTROEM)
---------------------------------
  C    -21.134462   26.263485   46.438693
  C    -20.434858   27.530033   45.936526
  C    -20.141295   28.281384   47.262302
  C    -19.837936   27.132336   48.250782
  O    -20.396761   25.900655   47.621536
  H    -21.062124   25.421394   45.748863
  H    -19.504996   27.242016   45.434024
  H    -21.054870   28.100242   45.241123
  H    -19.295990   28.970630   47.170996
  H    -21.010975   28.866814   47.573966
  H    -20.301132   27.265247   49.231998
  H    -18.766643   26.955302   48.377734
  C    -23.086984   26.835020   47.958792
  H    -22.758988   26.127147   48.726287
  H    -22.727614   27.834280   48.221208
  O    -22.572602   26.404643   46.650375
  C    -24.615363   26.882297   47.850383
  C    -25.301448   25.532578   47.579974
  C    -25.286890   24.881940   48.994927
  C    -25.487257   26.087093   49.936389
  O    -25.154199   27.308017   49.140819
  H    -24.901765   27.641684   47.117756
  H    -26.338825   25.726091   47.283309
  O    -24.706286   24.714417   46.556958
  H    -26.069846   24.126029   49.100761
  H    -24.321197   24.388733   49.149368
  H    -24.843474   26.060327   50.820762
  H    -26.525678   26.202504   50.258934
  H    -23.808540   25.067662   46.350456

 Multiplicity           Mult            ....    1
 Number of Electrons    NEL             ....  102
 Basis Dimension        Dim             ....  149

ORBITAL ENERGIES
----------------

  NO   OCC          E(Eh)            E(eV)
   0   2.0000     -19.163671      -521.4700
   1   2.0000     -19.160130      -521.3736
   2   2.0000     -19.139455      -520.8110
   3   2.0000     -19.109483      -519.9955
   4   2.0000     -10.293131      -280.0903
   5   2.0000     -10.241627      -278.6888
   6   2.0000     -10.237273      -278.5704
   7   2.0000     -10.233302      -278.4623
   8   2.0000     -10.227720      -278.3104
   9   2.0000     -10.224936      -278.2346
  10   2.0000     -10.201801      -277.6051
  11   2.0000     -10.197889      -277.4987
  12   2.0000     -10.176552      -276.9181
  13   2.0000      -1.068087       -29.0641
  14   2.0000      -1.024931       -27.8898
  15   2.0000      -1.008391       -27.4397
  16   2.0000      -0.989718       -26.9316
  17   2.0000      -0.800104       -21.7719
  18   2.0000      -0.777840       -21.1661
  19   2.0000      -0.766456       -20.8563
  20   2.0000      -0.738256       -20.0890
  21   2.0000      -0.679832       -18.4992
  22   2.0000      -0.614521       -16.7220
  23   2.0000      -0.601288       -16.3619
  24   2.0000      -0.593932       -16.1617
  25   2.0000      -0.576911       -15.6985
  26   2.0000      -0.531555       -14.4644
  27   2.0000      -0.515479       -14.0269
  28   2.0000      -0.509830       -13.8732
  29   2.0000      -0.486786       -13.2461
  30   2.0000      -0.475839       -12.9482
  31   2.0000      -0.462669       -12.5899
  32   2.0000      -0.442928       -12.0527
  33   2.0000      -0.432624       -11.7723
  34   2.0000      -0.425848       -11.5879
  35   2.0000      -0.422277       -11.4907
  36   2.0000      -0.408969       -11.1286
  37   2.0000      -0.389080       -10.5874
  38   2.0000      -0.386504       -10.5173
  39   2.0000      -0.371152       -10.0996
  40   2.0000      -0.367880       -10.0105
  41   2.0000      -0.358418        -9.7531
  42   2.0000      -0.353816        -9.6278
  43   2.0000      -0.337916        -9.1952
  44   2.0000      -0.334834        -9.1113
  45   2.0000      -0.320630        -8.7248
  46   2.0000      -0.291641        -7.9360
  47   2.0000      -0.275247        -7.4899
  48   2.0000      -0.264273        -7.1912
  49   2.0000      -0.249110        -6.7786
  50   2.0000      -0.239205        -6.5091
  51   0.0000       0.057488         1.5643
  52   0.0000       0.070699         1.9238
  53   0.0000       0.087133         2.3710
  54   0.0000       0.098733         2.6867
  55   0.0000       0.100675         2.7395

MULLIKEN ATOMIC CHARGES
-----------------------
   0 C :    0.304900
   1 C :   -0.259541
   2 C :   -0.321709
   3 C :   -0.017039
   4 O :   -0.506789
   5 H :    0.168043
   6 H :    0.154699
   7 H :    0.160875
   8 H :    0.152791
   9 H :    0.159923
  10 H :    0.150217
  11 H :    0.156811
  12 C :   -0.015724
  13 H :    0.162728
  14 H :    0.146325
  15 O :   -0.567834
  16 C :    0.047763
  17 C :    0.120221
  18 C :   -0.304833
  19 C :   -0.019776
  20 O :   -0.522886
  21 H :    0.159611
  22 H :    0.146171
  23 O :   -0.640003
  24 H :    0.152891
  25 H :    0.148527
  26 H :    0.141252
  27 H :    0.147499
  28 H :    0.394887
Sum of atomic charges:   -0.0000000

LOEWDIN ATOMIC CHARGES
----------------------
   0 C :    0.180544
   1 C :   -0.222535
   2 C :   -0.222796
   3 C :   -0.032652
   4 O :   -0.315182
   5 H :    0.113604
   6 H :    0.120266
   7 H :    0.125422
   8 H :    0.119907
   9 H :    0.113920
  10 H :    0.105902
  11 H :    0.110273
  12 C :   -0.046298
  13 H :    0.109039
  14 H :    0.103372
  15 O :   -0.341602
  16 C :    0.019666
  17 C :    0.042181
  18 C :   -0.238105
  19 C :   -0.032365
  20 O :   -0.325676
  21 H :    0.115040
  22 H :    0.104833
  23 O :   -0.435252
  24 H :    0.121630
  25 H :    0.112937
  26 H :    0.101492
  27 H :    0.105638
  28 H :    0.286800

  Mayer bond orders larger than 0.100000
B(  0-C ,  1-C ) :   0.9251 B(  0-C ,  4-O ) :   0.9244 B(  0-C ,  5-H ) :   0.9339
B(  0-C , 15-O ) :   0.8223 B(  1-C ,  2-C ) :   0.9524 B(  1-C ,  6-H ) :   0.9339
B(  1-C ,  7-H ) :   0.9358 B(  2-C ,  3-C ) :   0.9506 B(  2-C ,  8-H ) :   0.9435
B(  2-C ,  9-H ) :   0.9391 B(  3-C ,  4-O ) :   0.8278 B(  3-C , 10-H ) :   0.9327
B(  3-C , 11-H ) :   0.9392 B( 12-C , 13-H ) :   0.9164 B( 12-C , 14-H ) :   0.9128
B( 12-C , 15-O ) :   0.7816 B( 12-C , 16-C ) :   0.9074 B( 16-C , 17-C ) :   0.9170
B( 16-C , 20-O ) :   0.8566 B( 16-C , 21-H ) :   0.9285 B( 17-C , 18-C ) :   0.8991
B( 17-C , 22-H ) :   0.9293 B( 17-C , 23-O ) :   0.9377 B( 18-C , 19-C ) :   0.9411
B( 18-C , 24-H ) :   0.9444 B( 18-C , 25-H ) :   0.9429 B( 19-C , 20-O ) :   0.8316
B( 19-C , 26-H ) :   0.9341 B( 19-C , 27-H ) :   0.9390 B( 23-O , 28-H ) :   0.7215

FINAL SINGLE POINT ENERGY      -652.863848575873

DIPOLE MOMENT
-------------
                                X             Y             Z
Electronic contribution:     -2.29926      -2.03852      -2.08858
Nuclear contribution   :      3.47780       2.93831       2.41328
                        -----------------------------------------
Total Dipole Moment    :      1.17854       0.89979       0.32470
                        -----------------------------------------
Magnitude (a.u.)       :      1.51790
Magnitude (Debye)      :      3.85820

Rotational constants in cm-1:     0.050970     0.014663     0.013368
Rotational constants in MHz :  1528.044827   439.597461   400.768239

                             ****ORCA TERMINATED NORMALLY****
TOTAL RUN TIME: 0 days 0 hours 52 minutes 27 seconds 702 msec
