                         Program Version 4.2.0 -  RELEASE  -
|  1> # Test redundant internal optimization
|  2> #
|  3> ! RKS B3LYP  Opt TightSCF SmallPrint
|  4>
|  5> %basis
|  6>         Basis "6-31G"
|  7> end
|  8>
|  9> %geom
| 10> Constraints
| 11> { D 4  0  15  12  240.0   C } # D for Dihedral angle
| 12> { D 0  15  12  16  60.0   C } # D for Dihedral angle
| 13> { D 0  4  3  2   C } # D for Dihedral angle
| 14> { D 4  3  2  1   C } # D for Dihedral angle
| 15> { D 3  2  1  0   C } # D for Dihedral angle
| 16> { D 2  1  0  4   C } # D for Dihedral angle
| 17> { D 1  0  4  3   C } # D for Dihedral angle
| 18> { D 16  20  19  18   C } # D for Dihedral angle
| 19> { D 20  19  18  17   C } # D for Dihedral angle
| 20> { D 19  18  17  16   C } # D for Dihedral angle
| 21> { D 18  17  16  20   C } # D for Dihedral angle
| 22> { D 17  16  20  19   C } # D for Dihedral angle
| 23> { D 15  12  16  20   C } # D for Dihedral angle
| 24> end
| 25> end
| 26>
| 27>
| 28> #%pal
| 29> #nprocs 8
| 30> #end
| 31>
| 32> * xyz 0 1
| 33> C  -21.048   26.222   46.251
| 34> C  -20.361   27.558   45.944
| 35> C  -20.329   28.222   47.341
| 36> C  -20.110   27.022   48.296
| 37> O  -20.473   25.807   47.535
| 38> H  -20.833   25.428   45.533
| 39> H  -19.344   27.382   45.576
| 40> H  -20.898   28.157   45.201
| 41> H  -19.543   28.978   47.434
| 42> H  -21.289   28.710   47.548
| 43> H  -20.733   27.082   49.195
| 44> H  -19.064   26.913   48.597
| 45> C  -23.430   25.483   45.442
| 46> H  -24.495   25.689   45.602
| 47> H  -23.195   25.688   44.390
| 48> O  -22.586   26.394   46.375
| 49> C  -23.182   23.970   45.696
| 50> C  -23.645   23.557   47.097
| 51> C  -25.174   23.431   46.897
| 52> C  -25.296   22.887   45.452
| 53> O  -24.002   23.158   44.790
| 54> H  -22.138   23.737   45.477
| 55> H  -23.209   22.588   47.367
| 56> O  -23.263   24.588   48.194
| 57> H  -25.645   22.770   47.633
| 58> H  -25.647   24.416   46.981
| 59> H  -26.096   23.376   44.886
| 60> H  -25.453   21.806   45.424
| 61> H  -23.690   25.566   47.944
| 62> *
| 63>
| 64>                          ****END OF INPUT****
 Total Charge           Charge          ....    0
 Multiplicity           Mult            ....    1
 Number of Electrons    NEL             ....  102
FINAL SINGLE POINT ENERGY      -652.827452245064
FINAL SINGLE POINT ENERGY      -652.852493485904
FINAL SINGLE POINT ENERGY      -652.858955073464
FINAL SINGLE POINT ENERGY      -652.861405045233
FINAL SINGLE POINT ENERGY      -652.862666585654
FINAL SINGLE POINT ENERGY      -652.863421202563
FINAL SINGLE POINT ENERGY      -652.863848021880
FINAL SINGLE POINT ENERGY      -652.864038481747
FINAL SINGLE POINT ENERGY      -652.864273368423
FINAL SINGLE POINT ENERGY      -652.861788816089
FINAL SINGLE POINT ENERGY      -652.864048744669
FINAL SINGLE POINT ENERGY      -652.864949416796
FINAL SINGLE POINT ENERGY      -652.865718177916
FINAL SINGLE POINT ENERGY      -652.865899482153
FINAL SINGLE POINT ENERGY      -652.865924245987
FINAL SINGLE POINT ENERGY      -652.865932123112
FINAL SINGLE POINT ENERGY      -652.865933697714
                    ***********************HURRAY********************

CARTESIAN COORDINATES (ANGSTROEM)
---------------------------------
  C    -21.057616   26.167392   46.201580
  C    -20.355263   27.500519   45.926894
  C    -20.500431   28.219419   47.289993
  C    -20.385151   27.066063   48.312227
  O    -20.642637   25.813575   47.548276
  H    -20.766695   25.347047   45.542190
  H    -19.301381   27.318012   45.686660
  H    -20.821233   28.042662   45.101285
  H    -19.736510   28.986757   47.445820
  H    -21.485877   28.689047   47.352559
  H    -21.116640   27.133367   49.120718
  H    -19.380966   26.968575   48.734157
  C    -23.326169   25.529331   45.376317
  H    -24.339775   25.885726   45.569191
  H    -23.094885   25.686502   44.314204
  O    -22.483324   26.368965   46.224984
  C    -23.198301   24.032038   45.696581
  C    -23.621514   23.588990   47.105341
  C    -25.166202   23.516861   46.959612
  C    -25.362667   23.024320   45.510679
  O    -24.075314   23.276885   44.799171
  H    -22.183714   23.690351   45.464828
  H    -23.220410   22.576779   47.269785
  O    -23.275800   24.449645   48.203219
  H    -25.617235   22.850797   47.699532
  H    -25.568502   24.522403   47.117945
  H    -26.165525   23.546710   44.981747
  H    -25.543752   21.946914   45.452229
  H    -22.377512   24.839349   48.090279

 Multiplicity           Mult            ....    1
 Number of Electrons    NEL             ....  102
 Basis Dimension        Dim             ....  149

ORBITAL ENERGIES
----------------

  NO   OCC          E(Eh)            E(eV)
   0   2.0000     -19.157298      -521.2966
   1   2.0000     -19.148444      -521.0556
   2   2.0000     -19.138286      -520.7792
   3   2.0000     -19.111037      -520.0377
   4   2.0000     -10.289993      -280.0049
   5   2.0000     -10.233867      -278.4777
   6   2.0000     -10.231991      -278.4266
   7   2.0000     -10.229954      -278.3712
   8   2.0000     -10.228349      -278.3275
   9   2.0000     -10.224001      -278.2092
  10   2.0000     -10.192935      -277.3639
  11   2.0000     -10.191510      -277.3251
  12   2.0000     -10.176287      -276.9108
  13   2.0000      -1.065149       -28.9842
  14   2.0000      -1.021649       -27.8005
  15   2.0000      -1.002035       -27.2668
  16   2.0000      -0.990228       -26.9455
  17   2.0000      -0.794508       -21.6197
  18   2.0000      -0.769320       -20.9343
  19   2.0000      -0.763510       -20.7762
  20   2.0000      -0.736878       -20.0515
  21   2.0000      -0.676076       -18.3970
  22   2.0000      -0.608218       -16.5505
  23   2.0000      -0.605167       -16.4674
  24   2.0000      -0.590831       -16.0773
  25   2.0000      -0.569902       -15.5078
  26   2.0000      -0.527389       -14.3510
  27   2.0000      -0.511351       -13.9146
  28   2.0000      -0.496166       -13.5014
  29   2.0000      -0.495604       -13.4861
  30   2.0000      -0.467486       -12.7209
  31   2.0000      -0.457249       -12.4424
  32   2.0000      -0.447002       -12.1635
  33   2.0000      -0.436055       -11.8657
  34   2.0000      -0.425185       -11.5699
  35   2.0000      -0.413849       -11.2614
  36   2.0000      -0.405436       -11.0325
  37   2.0000      -0.378179       -10.2908
  38   2.0000      -0.373118       -10.1531
  39   2.0000      -0.366709        -9.9787
  40   2.0000      -0.364110        -9.9079
  41   2.0000      -0.357861        -9.7379
  42   2.0000      -0.346327        -9.4240
  43   2.0000      -0.334438        -9.1005
  44   2.0000      -0.327953        -8.9241
  45   2.0000      -0.315145        -8.5755
  46   2.0000      -0.290116        -7.8945
  47   2.0000      -0.276270        -7.5177
  48   2.0000      -0.264223        -7.1899
  49   2.0000      -0.247123        -6.7246
  50   2.0000      -0.231701        -6.3049
  51   0.0000       0.063259         1.7214
  52   0.0000       0.082757         2.2519
  53   0.0000       0.094633         2.5751
  54   0.0000       0.098083         2.6690
  55   0.0000       0.101672         2.7666

MULLIKEN ATOMIC CHARGES
-----------------------
   0 C :    0.263557
   1 C :   -0.246963
   2 C :   -0.298964
   3 C :   -0.008673
   4 O :   -0.521323
   5 H :    0.152028
   6 H :    0.145828
   7 H :    0.153636
   8 H :    0.145084
   9 H :    0.171507
  10 H :    0.163807
  11 H :    0.148511
  12 C :   -0.013668
  13 H :    0.160839
  14 H :    0.145989
  15 O :   -0.516094
  16 C :    0.048665
  17 C :    0.126292
  18 C :   -0.295811
  19 C :   -0.021659
  20 O :   -0.527405
  21 H :    0.144473
  22 H :    0.129894
  23 O :   -0.639771
  24 H :    0.151051
  25 H :    0.158159
  26 H :    0.141431
  27 H :    0.147659
  28 H :    0.391923
Sum of atomic charges:    0.0000000

LOEWDIN ATOMIC CHARGES
----------------------
   0 C :    0.167205
   1 C :   -0.216491
   2 C :   -0.214705
   3 C :   -0.026634
   4 O :   -0.324952
   5 H :    0.102498
   6 H :    0.113920
   7 H :    0.122779
   8 H :    0.116012
   9 H :    0.123971
  10 H :    0.113865
  11 H :    0.105905
  12 C :   -0.040069
  13 H :    0.118895
  14 H :    0.101881
  15 O :   -0.323192
  16 C :    0.001531
  17 C :    0.043057
  18 C :   -0.224913
  19 C :   -0.031898
  20 O :   -0.325790
  21 H :    0.103223
  22 H :    0.091946
  23 O :   -0.429368
  24 H :    0.121289
  25 H :    0.118228
  26 H :    0.101707
  27 H :    0.104840
  28 H :    0.285260

  Mayer bond orders larger than 0.100000
B(  0-C ,  1-C ) :   0.9443 B(  0-C ,  4-O ) :   0.8809 B(  0-C ,  5-H ) :   0.9132
B(  0-C , 15-O ) :   0.8616 B(  1-C ,  2-C ) :   0.9538 B(  1-C ,  6-H ) :   0.9360
B(  1-C ,  7-H ) :   0.9387 B(  2-C ,  3-C ) :   0.9548 B(  2-C ,  8-H ) :   0.9448
B(  2-C ,  9-H ) :   0.9415 B(  3-C ,  4-O ) :   0.8151 B(  3-C , 10-H ) :   0.9340
B(  3-C , 11-H ) :   0.9402 B( 12-C , 13-H ) :   0.9405 B( 12-C , 14-H ) :   0.9239
B( 12-C , 15-O ) :   0.8221 B( 12-C , 16-C ) :   0.8852 B( 16-C , 17-C ) :   0.8979
B( 16-C , 20-O ) :   0.8425 B( 16-C , 21-H ) :   0.9274 B( 17-C , 18-C ) :   0.9274
B( 17-C , 22-H ) :   0.9198 B( 17-C , 23-O ) :   0.9396 B( 18-C , 19-C ) :   0.9451
B( 18-C , 24-H ) :   0.9438 B( 18-C , 25-H ) :   0.9384 B( 19-C , 20-O ) :   0.8343
B( 19-C , 26-H ) :   0.9348 B( 19-C , 27-H ) :   0.9383 B( 23-O , 28-H ) :   0.7236

FINAL SINGLE POINT ENERGY      -652.865933683972

DIPOLE MOMENT
-------------
                                X             Y             Z
Electronic contribution:      0.10831      -2.74796      -0.32711
Nuclear contribution   :      0.44132       3.49632      -0.05725
                        -----------------------------------------
Total Dipole Moment    :      0.54962       0.74836      -0.38435
                        -----------------------------------------
Magnitude (a.u.)       :      1.00492
Magnitude (Debye)      :      2.55430

Rotational constants in cm-1:     0.062651     0.014628     0.013078
Rotational constants in MHz :  1878.222191   438.538918   392.077753

                             ****ORCA TERMINATED NORMALLY****
TOTAL RUN TIME: 0 days 1 hours 14 minutes 9 seconds 979 msec
