                         Program Version 4.2.0 -  RELEASE  -
|  1> # Test redundant internal optimization
|  2> #
|  3> ! RKS B3LYP  Opt TightSCF SmallPrint
|  4>
|  5> %basis
|  6>         Basis "6-31G"
|  7> end
|  8>
|  9> %geom
| 10> Constraints
| 11> { D 4  0  15  12  285.0   C } # D for Dihedral angle
| 12> { D 0  15  12  16  225.0   C } # D for Dihedral angle
| 13> { D 0  4  3  2   C } # D for Dihedral angle
| 14> { D 4  3  2  1   C } # D for Dihedral angle
| 15> { D 3  2  1  0   C } # D for Dihedral angle
| 16> { D 2  1  0  4   C } # D for Dihedral angle
| 17> { D 1  0  4  3   C } # D for Dihedral angle
| 18> { D 16  20  19  18   C } # D for Dihedral angle
| 19> { D 20  19  18  17   C } # D for Dihedral angle
| 20> { D 19  18  17  16   C } # D for Dihedral angle
| 21> { D 18  17  16  20   C } # D for Dihedral angle
| 22> { D 17  16  20  19   C } # D for Dihedral angle
| 23> { D 15  12  16  20   C } # D for Dihedral angle
| 24> end
| 25> end
| 26>
| 27>
| 28> #%pal
| 29> #nprocs 8
| 30> #end
| 31>
| 32> * xyz 0 1
| 33> C  -21.048   26.222   46.251
| 34> C  -20.361   27.558   45.944
| 35> C  -20.329   28.222   47.341
| 36> C  -20.110   27.022   48.296
| 37> O  -20.473   25.807   47.535
| 38> H  -20.833   25.428   45.533
| 39> H  -19.344   27.382   45.576
| 40> H  -20.898   28.157   45.201
| 41> H  -19.543   28.978   47.434
| 42> H  -21.289   28.710   47.548
| 43> H  -20.733   27.082   49.195
| 44> H  -19.064   26.913   48.597
| 45> C  -23.396   25.070   46.435
| 46> H  -22.753   24.238   46.121
| 47> H  -23.734   24.873   47.461
| 48> O  -22.586   26.394   46.375
| 49> C  -24.651   25.091   45.519
| 50> C  -25.487   23.818   45.691
| 51> C  -26.249   24.118   47.003
| 52> C  -26.503   25.644   46.922
| 53> O  -25.557   26.174   45.917
| 54> H  -24.341   25.294   44.492
| 55> O  -26.477   23.667   44.504
| 56> H  -24.879   22.909   45.752
| 57> H  -27.178   23.545   47.096
| 58> H  -25.620   23.877   47.868
| 59> H  -26.330   26.150   47.878
| 60> H  -27.512   25.882   46.572
| 61> H  -27.097   24.566   44.425
| 62> *
| 63>
| 64>                          ****END OF INPUT****
 Total Charge           Charge          ....    0
 Multiplicity           Mult            ....    1
 Number of Electrons    NEL             ....  102
FINAL SINGLE POINT ENERGY      -652.835441936334
FINAL SINGLE POINT ENERGY      -652.859431003020
FINAL SINGLE POINT ENERGY      -652.863608124910
FINAL SINGLE POINT ENERGY      -652.864336853788
FINAL SINGLE POINT ENERGY      -652.864424197071
FINAL SINGLE POINT ENERGY      -652.864434961092
                    ***********************HURRAY********************

CARTESIAN COORDINATES (ANGSTROEM)
---------------------------------
  C    -21.114136   26.128573   46.238535
  C    -20.558149   27.514989   45.912328
  C    -20.507805   28.172023   47.310416
  C    -20.142000   26.992661   48.239545
  O    -20.449339   25.758942   47.471761
  H    -20.883616   25.334418   45.520084
  H    -19.552770   27.409304   45.488868
  H    -21.191044   28.053638   45.204468
  H    -19.779148   28.986664   47.367351
  H    -21.494961   28.569633   47.562111
  H    -20.719090   26.984255   49.167742
  H    -19.074750   26.954037   48.478293
  C    -23.295387   25.029829   46.517983
  H    -22.681214   24.176078   46.194951
  H    -23.560987   24.876585   47.570350
  O    -22.537260   26.266547   46.402001
  C    -24.536626   25.120561   45.633812
  C    -25.445199   23.884709   45.711292
  C    -26.272106   24.179856   46.990705
  C    -26.444025   25.718652   46.947763
  O    -25.411189   26.232490   46.016971
  H    -24.223183   25.319042   44.604446
  O    -26.292248   23.791444   44.532770
  H    -24.906499   22.937020   45.753964
  H    -27.222297   23.641501   46.968406
  H    -25.718176   23.864404   47.881947
  H    -26.307122   26.187965   47.926707
  H    -27.417769   26.021156   46.549675
  H    -26.636906   24.684026   44.316754

 Multiplicity           Mult            ....    1
 Number of Electrons    NEL             ....  102
 Basis Dimension        Dim             ....  149

ORBITAL ENERGIES
----------------

  NO   OCC          E(Eh)            E(eV)
   0   2.0000     -19.142413      -520.8915
   1   2.0000     -19.140336      -520.8350
   2   2.0000     -19.139745      -520.8189
   3   2.0000     -19.136413      -520.7283
   4   2.0000     -10.276874      -279.6480
   5   2.0000     -10.243718      -278.7457
   6   2.0000     -10.233858      -278.4774
   7   2.0000     -10.231652      -278.4174
   8   2.0000     -10.229786      -278.3666
   9   2.0000     -10.222220      -278.1608
  10   2.0000     -10.189784      -277.2781
  11   2.0000     -10.181786      -277.0605
  12   2.0000     -10.181241      -277.0456
  13   2.0000      -1.052890       -28.6506
  14   2.0000      -1.035937       -28.1893
  15   2.0000      -1.006313       -27.3832
  16   2.0000      -0.991686       -26.9852
  17   2.0000      -0.789427       -21.4814
  18   2.0000      -0.780517       -21.2389
  19   2.0000      -0.766369       -20.8540
  20   2.0000      -0.728760       -19.8306
  21   2.0000      -0.673097       -18.3159
  22   2.0000      -0.605165       -16.4674
  23   2.0000      -0.597638       -16.2625
  24   2.0000      -0.591538       -16.0966
  25   2.0000      -0.580150       -15.7867
  26   2.0000      -0.528228       -14.3738
  27   2.0000      -0.509597       -13.8668
  28   2.0000      -0.493857       -13.4385
  29   2.0000      -0.488886       -13.3033
  30   2.0000      -0.472899       -12.8682
  31   2.0000      -0.457073       -12.4376
  32   2.0000      -0.449429       -12.2296
  33   2.0000      -0.441994       -12.0273
  34   2.0000      -0.421181       -11.4609
  35   2.0000      -0.410738       -11.1768
  36   2.0000      -0.398657       -10.8480
  37   2.0000      -0.393782       -10.7154
  38   2.0000      -0.372862       -10.1461
  39   2.0000      -0.366368        -9.9694
  40   2.0000      -0.359977        -9.7955
  41   2.0000      -0.353265        -9.6128
  42   2.0000      -0.345211        -9.3937
  43   2.0000      -0.333521        -9.0756
  44   2.0000      -0.323094        -8.7918
  45   2.0000      -0.307908        -8.3786
  46   2.0000      -0.296872        -8.0783
  47   2.0000      -0.271876        -7.3981
  48   2.0000      -0.270296        -7.3551
  49   2.0000      -0.252779        -6.8785
  50   2.0000      -0.239167        -6.5081
  51   0.0000       0.065394         1.7795
  52   0.0000       0.085255         2.3199
  53   0.0000       0.089462         2.4344
  54   0.0000       0.100887         2.7453
  55   0.0000       0.103555         2.8179

MULLIKEN ATOMIC CHARGES
-----------------------
   0 C :    0.277958
   1 C :   -0.260137
   2 C :   -0.299239
   3 C :   -0.002850
   4 O :   -0.514275
   5 H :    0.139392
   6 H :    0.143511
   7 H :    0.160651
   8 H :    0.139386
   9 H :    0.167486
  10 H :    0.145150
  11 H :    0.141420
  12 C :    0.006317
  13 H :    0.130404
  14 H :    0.145080
  15 O :   -0.506667
  16 C :    0.068169
  17 C :    0.076972
  18 C :   -0.295114
  19 C :   -0.025014
  20 O :   -0.510973
  21 H :    0.159793
  22 O :   -0.602551
  23 H :    0.151599
  24 H :    0.162857
  25 H :    0.143517
  26 H :    0.149106
  27 H :    0.142290
  28 H :    0.365762
Sum of atomic charges:   -0.0000000

LOEWDIN ATOMIC CHARGES
----------------------
   0 C :    0.170206
   1 C :   -0.215163
   2 C :   -0.216031
   3 C :   -0.027896
   4 O :   -0.333786
   5 H :    0.093843
   6 H :    0.113291
   7 H :    0.125973
   8 H :    0.112596
   9 H :    0.121737
  10 H :    0.104463
  11 H :    0.101831
  12 C :   -0.038192
  13 H :    0.101287
  14 H :    0.104260
  15 O :   -0.315076
  16 C :    0.013944
  17 C :    0.034883
  18 C :   -0.240584
  19 C :   -0.037146
  20 O :   -0.321699
  21 H :    0.116792
  22 O :   -0.414812
  23 H :    0.115005
  24 H :    0.126833
  25 H :    0.112747
  26 H :    0.105700
  27 H :    0.101141
  28 H :    0.283856

  Mayer bond orders larger than 0.100000
B(  0-C ,  1-C ) :   0.9504 B(  0-C ,  4-O ) :   0.9024 B(  0-C ,  5-H ) :   0.9173
B(  0-C , 15-O ) :   0.8727 B(  1-C ,  2-C ) :   0.9573 B(  1-C ,  6-H ) :   0.9403
B(  1-C ,  7-H ) :   0.9354 B(  2-C ,  3-C ) :   0.9553 B(  2-C ,  8-H ) :   0.9453
B(  2-C ,  9-H ) :   0.9433 B(  3-C ,  4-O ) :   0.8386 B(  3-C , 10-H ) :   0.9362
B(  3-C , 11-H ) :   0.9404 B( 12-C , 13-H ) :   0.9120 B( 12-C , 14-H ) :   0.9265
B( 12-C , 15-O ) :   0.8329 B( 12-C , 16-C ) :   0.8965 B( 16-C , 17-C ) :   0.8973
B( 16-C , 20-O ) :   0.8639 B( 16-C , 21-H ) :   0.9259 B( 17-C , 18-C ) :   0.9111
B( 17-C , 22-O ) :   0.8934 B( 17-C , 23-H ) :   0.9334 B( 18-C , 19-C ) :   0.9387
B( 18-C , 24-H ) :   0.9374 B( 18-C , 25-H ) :   0.9345 B( 19-C , 20-O ) :   0.8512
B( 19-C , 26-H ) :   0.9344 B( 19-C , 27-H ) :   0.9385 B( 22-O , 28-H ) :   0.7933

FINAL SINGLE POINT ENERGY      -652.864437035058

DIPOLE MOMENT
-------------
                                X             Y             Z
Electronic contribution:     -1.64015      -1.75181      -2.76316
Nuclear contribution   :      1.78174       1.96447       3.22395
                        -----------------------------------------
Total Dipole Moment    :      0.14159       0.21266       0.46080
                        -----------------------------------------
Magnitude (a.u.)       :      0.52688
Magnitude (Debye)      :      1.33923

Rotational constants in cm-1:     0.065107     0.011152     0.010963
Rotational constants in MHz :  1951.861831   334.320059   328.650523

                             ****ORCA TERMINATED NORMALLY****
TOTAL RUN TIME: 0 days 0 hours 24 minutes 39 seconds 52 msec
