                         Program Version 4.2.0 -  RELEASE  -
|  1> # Test redundant internal optimization
|  2> #
|  3> ! RKS B3LYP  Opt TightSCF SmallPrint
|  4>
|  5> %basis
|  6>         Basis "6-31G"
|  7> end
|  8>
|  9> %geom
| 10> Constraints
| 11> { D 4  0  15  12  45.0   C } # D for Dihedral angle
| 12> { D 0  15  12  16  210.0   C } # D for Dihedral angle
| 13> { D 0  4  3  2   C } # D for Dihedral angle
| 14> { D 4  3  2  1   C } # D for Dihedral angle
| 15> { D 3  2  1  0   C } # D for Dihedral angle
| 16> { D 2  1  0  4   C } # D for Dihedral angle
| 17> { D 1  0  4  3   C } # D for Dihedral angle
| 18> { D 16  20  19  18   C } # D for Dihedral angle
| 19> { D 20  19  18  17   C } # D for Dihedral angle
| 20> { D 19  18  17  16   C } # D for Dihedral angle
| 21> { D 18  17  16  20   C } # D for Dihedral angle
| 22> { D 17  16  20  19   C } # D for Dihedral angle
| 23> { D 15  12  16  20   C } # D for Dihedral angle
| 24> end
| 25> end
| 26>
| 27>
| 28> #%pal
| 29> #nprocs 8
| 30> #end
| 31>
| 32> * xyz 0 1
| 33> C  -21.048   26.222   46.251
| 34> C  -20.361   27.558   45.944
| 35> C  -20.329   28.222   47.341
| 36> C  -20.110   27.022   48.296
| 37> O  -20.473   25.807   47.535
| 38> H  -20.833   25.428   45.533
| 39> H  -19.344   27.382   45.576
| 40> H  -20.898   28.157   45.201
| 41> H  -19.543   28.978   47.434
| 42> H  -21.289   28.710   47.548
| 43> H  -20.733   27.082   49.195
| 44> H  -19.064   26.913   48.597
| 45> C  -23.065   27.161   47.638
| 46> H  -22.349   26.999   48.453
| 47> H  -23.116   28.239   47.436
| 48> O  -22.586   26.394   46.375
| 49> C  -24.469   26.704   48.122
| 50> C  -24.959   27.559   49.296
| 51> C  -25.454   28.833   48.571
| 52> C  -26.034   28.280   47.245
| 53> O  -25.470   26.924   47.073
| 54> H  -24.446   25.631   48.323
| 55> O  -26.135   26.848   50.019
| 56> H  -24.175   27.767   50.032
| 57> H  -26.196   29.391   49.151
| 58> H  -24.610   29.505   48.372
| 59> H  -25.762   28.894   46.380
| 60> H  -27.122   28.175   47.278
| 61> H  -26.932   26.630   49.300
| 62> *
| 63>
| 64>                          ****END OF INPUT****
 Total Charge           Charge          ....    0
 Multiplicity           Mult            ....    1
 Number of Electrons    NEL             ....  102
FINAL SINGLE POINT ENERGY      -652.818646504322
FINAL SINGLE POINT ENERGY      -652.844184713244
FINAL SINGLE POINT ENERGY      -652.853323214767
FINAL SINGLE POINT ENERGY      -652.855567722564
FINAL SINGLE POINT ENERGY      -652.855928476250
FINAL SINGLE POINT ENERGY      -652.855986396769
                    ***********************HURRAY********************

CARTESIAN COORDINATES (ANGSTROEM)
---------------------------------
  C    -21.206037   26.310357   46.430540
  C    -20.360880   27.491174   45.933947
  C    -19.978533   28.197980   47.264997
  C    -19.812334   27.009285   48.244483
  O    -20.508656   25.858338   47.615176
  H    -21.214221   25.467549   45.738142
  H    -19.468217   27.102535   45.431778
  H    -20.908840   28.131548   45.238703
  H    -19.060005   28.786474   47.179047
  H    -20.776754   28.873623   47.587726
  H    -20.245949   27.194783   49.232070
  H    -18.765905   26.714578   48.367567
  C    -23.086760   27.315816   47.764404
  H    -22.442310   27.127945   48.631683
  H    -23.094060   28.392945   47.547221
  O    -22.615605   26.573110   46.610136
  C    -24.491759   26.815110   48.093125
  C    -25.152262   27.539078   49.275697
  C    -25.720271   28.810776   48.591251
  C    -26.141537   28.294080   47.192661
  O    -25.430301   27.010817   46.985390
  H    -24.438257   25.735829   48.262023
  O    -26.205802   26.725725   49.859913
  H    -24.471185   27.759864   50.099078
  H    -26.554891   29.218404   49.167109
  H    -24.944812   29.581679   48.516099
  H    -25.873296   28.985453   46.387675
  H    -27.214070   28.084443   47.127958
  H    -26.721489   26.305701   49.139398

 Multiplicity           Mult            ....    1
 Number of Electrons    NEL             ....  102
 Basis Dimension        Dim             ....  149

ORBITAL ENERGIES
----------------

  NO   OCC          E(Eh)            E(eV)
   0   2.0000     -19.147450      -521.0286
   1   2.0000     -19.140587      -520.8419
   2   2.0000     -19.138917      -520.7964
   3   2.0000     -19.138324      -520.7803
   4   2.0000     -10.278080      -279.6808
   5   2.0000     -10.243064      -278.7280
   6   2.0000     -10.234194      -278.4866
   7   2.0000     -10.233578      -278.4698
   8   2.0000     -10.232234      -278.4333
   9   2.0000     -10.229449      -278.3575
  10   2.0000     -10.195866      -277.4436
  11   2.0000     -10.190213      -277.2898
  12   2.0000     -10.189041      -277.2579
  13   2.0000      -1.054820       -28.7031
  14   2.0000      -1.035261       -28.1709
  15   2.0000      -1.006083       -27.3769
  16   2.0000      -0.994867       -27.0717
  17   2.0000      -0.791425       -21.5358
  18   2.0000      -0.785182       -21.3659
  19   2.0000      -0.770691       -20.9716
  20   2.0000      -0.734536       -19.9877
  21   2.0000      -0.677078       -18.4242
  22   2.0000      -0.606230       -16.4964
  23   2.0000      -0.605417       -16.4742
  24   2.0000      -0.598287       -16.2802
  25   2.0000      -0.577131       -15.7045
  26   2.0000      -0.524883       -14.2828
  27   2.0000      -0.511067       -13.9068
  28   2.0000      -0.501789       -13.6544
  29   2.0000      -0.491398       -13.3716
  30   2.0000      -0.478805       -13.0289
  31   2.0000      -0.463410       -12.6100
  32   2.0000      -0.452803       -12.3214
  33   2.0000      -0.436813       -11.8863
  34   2.0000      -0.425370       -11.5749
  35   2.0000      -0.418471       -11.3872
  36   2.0000      -0.400784       -10.9059
  37   2.0000      -0.393109       -10.6970
  38   2.0000      -0.381676       -10.3859
  39   2.0000      -0.371583       -10.1113
  40   2.0000      -0.363022        -9.8783
  41   2.0000      -0.359290        -9.7768
  42   2.0000      -0.352275        -9.5859
  43   2.0000      -0.330015        -8.9802
  44   2.0000      -0.324200        -8.8219
  45   2.0000      -0.312273        -8.4974
  46   2.0000      -0.301825        -8.2131
  47   2.0000      -0.270843        -7.3700
  48   2.0000      -0.265944        -7.2367
  49   2.0000      -0.255270        -6.9463
  50   2.0000      -0.239609        -6.5201
  51   0.0000       0.063413         1.7256
  52   0.0000       0.074318         2.0223
  53   0.0000       0.082491         2.2447
  54   0.0000       0.099486         2.7072
  55   0.0000       0.100530         2.7355

MULLIKEN ATOMIC CHARGES
-----------------------
   0 C :    0.293054
   1 C :   -0.266341
   2 C :   -0.311549
   3 C :   -0.017634
   4 O :   -0.507390
   5 H :    0.168405
   6 H :    0.151292
   7 H :    0.155359
   8 H :    0.147488
   9 H :    0.145191
  10 H :    0.141184
  11 H :    0.151311
  12 C :   -0.007463
  13 H :    0.143502
  14 H :    0.125681
  15 O :   -0.507579
  16 C :    0.067845
  17 C :    0.076115
  18 C :   -0.300079
  19 C :   -0.030212
  20 O :   -0.507013
  21 H :    0.173540
  22 O :   -0.600463
  23 H :    0.148682
  24 H :    0.163514
  25 H :    0.141795
  26 H :    0.147916
  27 H :    0.147119
  28 H :    0.366731
Sum of atomic charges:    0.0000000

LOEWDIN ATOMIC CHARGES
----------------------
   0 C :    0.176292
   1 C :   -0.227860
   2 C :   -0.223253
   3 C :   -0.035536
   4 O :   -0.320712
   5 H :    0.114805
   6 H :    0.118727
   7 H :    0.122267
   8 H :    0.117087
   9 H :    0.108351
  10 H :    0.098857
  11 H :    0.106374
  12 C :   -0.045758
  13 H :    0.105604
  14 H :    0.090417
  15 O :   -0.311124
  16 C :    0.017667
  17 C :    0.034777
  18 C :   -0.243464
  19 C :   -0.038983
  20 O :   -0.318696
  21 H :    0.123983
  22 O :   -0.413362
  23 H :    0.113680
  24 H :    0.126777
  25 H :    0.111069
  26 H :    0.104808
  27 H :    0.102733
  28 H :    0.284474

  Mayer bond orders larger than 0.100000
B(  0-C ,  1-C ) :   0.9135 B(  0-C ,  4-O ) :   0.8988 B(  0-C ,  5-H ) :   0.9348
B(  0-C , 15-O ) :   0.8956 B(  1-C ,  2-C ) :   0.9563 B(  1-C ,  6-H ) :   0.9350
B(  1-C ,  7-H ) :   0.9373 B(  2-C ,  3-C ) :   0.9483 B(  2-C ,  8-H ) :   0.9450
B(  2-C ,  9-H ) :   0.9427 B(  3-C ,  4-O ) :   0.8410 B(  3-C , 10-H ) :   0.9307
B(  3-C , 11-H ) :   0.9393 B( 12-C , 13-H ) :   0.9023 B( 12-C , 14-H ) :   0.9153
B( 12-C , 15-O ) :   0.8420 B( 12-C , 16-C ) :   0.8976 B( 16-C , 17-C ) :   0.8986
B( 16-C , 20-O ) :   0.8679 B( 16-C , 21-H ) :   0.9222 B( 17-C , 18-C ) :   0.9115
B( 17-C , 22-O ) :   0.8967 B( 17-C , 23-H ) :   0.9334 B( 18-C , 19-C ) :   0.9402
B( 18-C , 24-H ) :   0.9367 B( 18-C , 25-H ) :   0.9345 B( 19-C , 20-O ) :   0.8536
B( 19-C , 26-H ) :   0.9340 B( 19-C , 27-H ) :   0.9374 B( 22-O , 28-H ) :   0.7930

FINAL SINGLE POINT ENERGY      -652.855991609961

DIPOLE MOMENT
-------------
                                X             Y             Z
Electronic contribution:     -3.30705      -6.01501      -0.55831
Nuclear contribution   :      4.03406       7.54890       0.53541
                        -----------------------------------------
Total Dipole Moment    :      0.72701       1.53388      -0.02290
                        -----------------------------------------
Magnitude (a.u.)       :      1.69761
Magnitude (Debye)      :      4.31498

Rotational constants in cm-1:     0.055787     0.012679     0.012179
Rotational constants in MHz :  1672.464566   380.116536   365.117715

                             ****ORCA TERMINATED NORMALLY****
TOTAL RUN TIME: 0 days 0 hours 21 minutes 45 seconds 750 msec
