                         Program Version 4.2.0 -  RELEASE  -
|  1> # Test redundant internal optimization
|  2> #
|  3> ! RKS B3LYP  Opt TightSCF SmallPrint
|  4>
|  5> %basis
|  6>         Basis "6-31G"
|  7> end
|  8>
|  9> %geom
| 10> Constraints
| 11> { D 4  0  15  12  255.0   C } # D for Dihedral angle
| 12> { D 0  15  12  16  45.0   C } # D for Dihedral angle
| 13> { D 0  4  3  2   C } # D for Dihedral angle
| 14> { D 4  3  2  1   C } # D for Dihedral angle
| 15> { D 3  2  1  0   C } # D for Dihedral angle
| 16> { D 2  1  0  4   C } # D for Dihedral angle
| 17> { D 1  0  4  3   C } # D for Dihedral angle
| 18> { D 16  20  19  18   C } # D for Dihedral angle
| 19> { D 20  19  18  17   C } # D for Dihedral angle
| 20> { D 19  18  17  16   C } # D for Dihedral angle
| 21> { D 18  17  16  20   C } # D for Dihedral angle
| 22> { D 17  16  20  19   C } # D for Dihedral angle
| 23> { D 15  12  16  20   C } # D for Dihedral angle
| 24> end
| 25> end
| 26>
| 27>
| 28> #%pal
| 29> #nprocs 8
| 30> #end
| 31>
| 32> * xyz 0 1
| 33> C  -21.048   26.222   46.251
| 34> C  -20.361   27.558   45.944
| 35> C  -20.329   28.222   47.341
| 36> C  -20.110   27.022   48.296
| 37> O  -20.473   25.807   47.535
| 38> H  -20.833   25.428   45.533
| 39> H  -19.344   27.382   45.576
| 40> H  -20.898   28.157   45.201
| 41> H  -19.543   28.978   47.434
| 42> H  -21.289   28.710   47.548
| 43> H  -20.733   27.082   49.195
| 44> H  -19.064   26.913   48.597
| 45> C  -23.431   25.260   45.734
| 46> H  -24.466   25.332   46.092
| 47> H  -23.439   25.358   44.640
| 48> O  -22.586   26.394   46.375
| 49> C  -22.894   23.843   46.077
| 50> C  -23.679   22.755   45.336
| 51> C  -23.050   22.820   43.924
| 52> C  -21.565   23.153   44.217
| 53> O  -21.518   23.686   45.595
| 54> H  -22.869   23.723   47.162
| 55> O  -23.419   21.370   45.990
| 56> H  -24.760   22.935   45.328
| 57> H  -23.165   21.886   43.364
| 58> H  -23.517   23.621   43.340
| 59> H  -21.160   23.903   43.528
| 60> H  -20.925   22.266   44.191
| 61> H  -22.342   21.169   46.008
| 62> *
| 63>
| 64>                          ****END OF INPUT****
 Total Charge           Charge          ....    0
 Multiplicity           Mult            ....    1
 Number of Electrons    NEL             ....  102
FINAL SINGLE POINT ENERGY      -652.827041467317
FINAL SINGLE POINT ENERGY      -652.850196654006
FINAL SINGLE POINT ENERGY      -652.856858665392
FINAL SINGLE POINT ENERGY      -652.859114716152
FINAL SINGLE POINT ENERGY      -652.859461918730
FINAL SINGLE POINT ENERGY      -652.859514268577
                    ***********************HURRAY********************

CARTESIAN COORDINATES (ANGSTROEM)
---------------------------------
  C    -20.867348   26.252435   46.215329
  C    -20.387165   27.689047   46.004823
  C    -20.505424   28.277783   47.431822
  C    -20.135993   27.076468   48.330519
  O    -20.286505   25.870494   47.482387
  H    -20.547158   25.510587   45.488718
  H    -19.342239   27.676512   45.672613
  H    -20.989432   28.223087   45.266647
  H    -19.846854   29.136853   47.591204
  H    -21.537437   28.591669   47.613218
  H    -20.788097   26.979537   49.202811
  H    -19.093059   27.100247   48.661951
  C    -23.167435   25.270046   45.749685
  H    -24.144080   25.437388   46.214972
  H    -23.273025   25.451761   44.667916
  O    -22.317272   26.300081   46.317328
  C    -22.757466   23.811665   45.985084
  C    -23.700424   22.792068   45.326491
  C    -23.140694   22.734723   43.879900
  C    -21.614539   22.905775   44.086016
  O    -21.432688   23.481369   45.444034
  H    -22.681375   23.638724   47.063339
  O    -23.619995   21.501548   45.989156
  H    -24.754249   23.071788   45.369026
  H    -23.403967   21.788242   43.401039
  H    -23.555806   23.552400   43.280161
  H    -21.160112   23.576093   43.349716
  H    -21.077367   21.953332   44.068281
  H    -22.682794   21.303278   46.197813

 Multiplicity           Mult            ....    1
 Number of Electrons    NEL             ....  102
 Basis Dimension        Dim             ....  149

ORBITAL ENERGIES
----------------

  NO   OCC          E(Eh)            E(eV)
   0   2.0000     -19.150394      -521.1087
   1   2.0000     -19.142442      -520.8923
   2   2.0000     -19.133445      -520.6475
   3   2.0000     -19.125211      -520.4234
   4   2.0000     -10.262921      -279.2683
   5   2.0000     -10.248009      -278.8625
   6   2.0000     -10.237145      -278.5669
   7   2.0000     -10.236709      -278.5550
   8   2.0000     -10.234467      -278.4940
   9   2.0000     -10.213787      -277.9313
  10   2.0000     -10.194845      -277.4158
  11   2.0000     -10.175329      -276.8848
  12   2.0000     -10.174832      -276.8713
  13   2.0000      -1.045523       -28.4501
  14   2.0000      -1.035922       -28.1889
  15   2.0000      -1.010744       -27.5037
  16   2.0000      -0.982785       -26.7429
  17   2.0000      -0.790233       -21.5033
  18   2.0000      -0.777677       -21.1617
  19   2.0000      -0.765695       -20.8356
  20   2.0000      -0.726007       -19.7557
  21   2.0000      -0.673507       -18.3271
  22   2.0000      -0.609095       -16.5743
  23   2.0000      -0.601107       -16.3570
  24   2.0000      -0.587290       -15.9810
  25   2.0000      -0.570848       -15.5336
  26   2.0000      -0.528329       -14.3766
  27   2.0000      -0.508038       -13.8244
  28   2.0000      -0.494985       -13.4692
  29   2.0000      -0.481105       -13.0915
  30   2.0000      -0.473573       -12.8866
  31   2.0000      -0.455905       -12.4058
  32   2.0000      -0.445683       -12.1276
  33   2.0000      -0.438012       -11.9189
  34   2.0000      -0.422420       -11.4946
  35   2.0000      -0.409306       -11.1378
  36   2.0000      -0.398946       -10.8559
  37   2.0000      -0.390131       -10.6160
  38   2.0000      -0.378640       -10.3033
  39   2.0000      -0.366008        -9.9596
  40   2.0000      -0.364267        -9.9122
  41   2.0000      -0.346433        -9.4269
  42   2.0000      -0.339996        -9.2517
  43   2.0000      -0.334184        -9.0936
  44   2.0000      -0.319538        -8.6951
  45   2.0000      -0.307249        -8.3607
  46   2.0000      -0.292944        -7.9714
  47   2.0000      -0.276141        -7.5142
  48   2.0000      -0.259899        -7.0722
  49   2.0000      -0.252550        -6.8722
  50   2.0000      -0.230852        -6.2818
  51   0.0000       0.059853         1.6287
  52   0.0000       0.082475         2.2443
  53   0.0000       0.089411         2.4330
  54   0.0000       0.097966         2.6658
  55   0.0000       0.107164         2.9161

MULLIKEN ATOMIC CHARGES
-----------------------
   0 C :    0.277637
   1 C :   -0.250963
   2 C :   -0.296402
   3 C :   -0.000265
   4 O :   -0.505041
   5 H :    0.176371
   6 H :    0.139241
   7 H :    0.142732
   8 H :    0.134158
   9 H :    0.159834
  10 H :    0.143859
  11 H :    0.136917
  12 C :    0.008998
  13 H :    0.152308
  14 H :    0.120066
  15 O :   -0.535460
  16 C :    0.048787
  17 C :    0.075742
  18 C :   -0.293750
  19 C :   -0.032628
  20 O :   -0.514852
  21 H :    0.181892
  22 O :   -0.600786
  23 H :    0.155579
  24 H :    0.165102
  25 H :    0.144975
  26 H :    0.145049
  27 H :    0.152842
  28 H :    0.368059
Sum of atomic charges:   -0.0000000

LOEWDIN ATOMIC CHARGES
----------------------
   0 C :    0.169668
   1 C :   -0.218182
   2 C :   -0.216424
   3 C :   -0.028665
   4 O :   -0.318655
   5 H :    0.116216
   6 H :    0.110296
   7 H :    0.116768
   8 H :    0.110051
   9 H :    0.117972
  10 H :    0.103516
  11 H :    0.099535
  12 C :   -0.036398
  13 H :    0.117552
  14 H :    0.087272
  15 O :   -0.334158
  16 C :    0.003180
  17 C :    0.037489
  18 C :   -0.240627
  19 C :   -0.039919
  20 O :   -0.322348
  21 H :    0.125361
  22 O :   -0.412559
  23 H :    0.117088
  24 H :    0.128010
  25 H :    0.113158
  26 H :    0.103270
  27 H :    0.106089
  28 H :    0.285445

  Mayer bond orders larger than 0.100000
B(  0-C ,  1-C ) :   0.9417 B(  0-C ,  4-O ) :   0.9147 B(  0-C ,  5-H ) :   0.9028
B(  0-C , 15-O ) :   0.8233 B(  1-C ,  2-C ) :   0.9566 B(  1-C ,  6-H ) :   0.9407
B(  1-C ,  7-H ) :   0.9392 B(  2-C ,  3-C ) :   0.9544 B(  2-C ,  8-H ) :   0.9464
B(  2-C ,  9-H ) :   0.9441 B(  3-C ,  4-O ) :   0.8455 B(  3-C , 10-H ) :   0.9356
B(  3-C , 11-H ) :   0.9402 B( 12-C , 13-H ) :   0.9285 B( 12-C , 14-H ) :   0.9227
B( 12-C , 15-O ) :   0.8690 B( 12-C , 16-C ) :   0.8919 B( 16-C , 17-C ) :   0.8938
B( 16-C , 20-O ) :   0.8414 B( 16-C , 21-H ) :   0.9194 B( 17-C , 18-C ) :   0.9093
B( 17-C , 22-O ) :   0.8950 B( 17-C , 23-H ) :   0.9335 B( 18-C , 19-C ) :   0.9413
B( 18-C , 24-H ) :   0.9371 B( 18-C , 25-H ) :   0.9327 B( 19-C , 20-O ) :   0.8440
B( 19-C , 26-H ) :   0.9343 B( 19-C , 27-H ) :   0.9374 B( 22-O , 28-H ) :   0.7928

FINAL SINGLE POINT ENERGY      -652.859518273177

DIPOLE MOMENT
-------------
                                X             Y             Z
Electronic contribution:     -0.62325      -3.97130       2.07195
Nuclear contribution   :      0.58544       4.42866      -3.08729
                        -----------------------------------------
Total Dipole Moment    :     -0.03782       0.45737      -1.01534
                        -----------------------------------------
Magnitude (a.u.)       :      1.11424
Magnitude (Debye)      :      2.83216

Rotational constants in cm-1:     0.064115     0.012746     0.012572
Rotational constants in MHz :  1922.115781   382.118231   376.908381

                             ****ORCA TERMINATED NORMALLY****
TOTAL RUN TIME: 0 days 0 hours 16 minutes 42 seconds 133 msec
