                         Program Version 4.2.0 -  RELEASE  -
|  1> # Test redundant internal optimization
|  2> #
|  3> ! RKS B3LYP  Opt TightSCF SmallPrint
|  4>
|  5> %basis
|  6>         Basis "6-31G"
|  7> end
|  8>
|  9> %geom
| 10> Constraints
| 11> { D 4  0  15  12  165.0   C } # D for Dihedral angle
| 12> { D 0  15  12  16  105.0   C } # D for Dihedral angle
| 13> { D 0  4  3  2   C } # D for Dihedral angle
| 14> { D 4  3  2  1   C } # D for Dihedral angle
| 15> { D 3  2  1  0   C } # D for Dihedral angle
| 16> { D 2  1  0  4   C } # D for Dihedral angle
| 17> { D 1  0  4  3   C } # D for Dihedral angle
| 18> { D 16  20  19  18   C } # D for Dihedral angle
| 19> { D 20  19  18  17   C } # D for Dihedral angle
| 20> { D 19  18  17  16   C } # D for Dihedral angle
| 21> { D 18  17  16  20   C } # D for Dihedral angle
| 22> { D 17  16  20  19   C } # D for Dihedral angle
| 23> { D 15  12  16  20   C } # D for Dihedral angle
| 24> end
| 25> end
| 26>
| 27>
| 28> #%pal
| 29> #nprocs 8
| 30> #end
| 31>
| 32> * xyz 0 1
| 33> C  -21.048   26.222   46.251
| 34> C  -20.361   27.558   45.944
| 35> C  -20.329   28.222   47.341
| 36> C  -20.110   27.022   48.296
| 37> O  -20.473   25.807   47.535
| 38> H  -20.833   25.428   45.533
| 39> H  -19.344   27.382   45.576
| 40> H  -20.898   28.157   45.201
| 41> H  -19.543   28.978   47.434
| 42> H  -21.289   28.710   47.548
| 43> H  -20.733   27.082   49.195
| 44> H  -19.064   26.913   48.597
| 45> C  -23.260   27.170   45.210
| 46> H  -23.963   27.904   45.623
| 47> H  -22.507   27.710   44.622
| 48> O  -22.586   26.394   46.375
| 49> C  -24.039   26.240   44.240
| 50> C  -23.137   25.128   43.690
| 51> C  -23.113   24.130   44.873
| 52> C  -24.539   24.252   45.465
| 53> O  -25.099   25.523   44.957
| 54> H  -24.524   26.847   43.474
| 55> H  -23.599   24.671   42.809
| 56> O  -21.721   25.629   43.297
| 57> H  -22.876   23.108   44.562
| 58> H  -22.362   24.439   45.610
| 59> H  -24.540   24.271   46.560
| 60> H  -25.202   23.450   45.125
| 61> H  -21.239   26.091   44.166
| 62> *
| 63>
| 64>                          ****END OF INPUT****
 Total Charge           Charge          ....    0
 Multiplicity           Mult            ....    1
 Number of Electrons    NEL             ....  102
FINAL SINGLE POINT ENERGY      -652.810659243750
FINAL SINGLE POINT ENERGY      -652.838238681609
FINAL SINGLE POINT ENERGY      -652.848173955621
FINAL SINGLE POINT ENERGY      -652.850270985859
FINAL SINGLE POINT ENERGY      -652.850802548119
FINAL SINGLE POINT ENERGY      -652.850960324990
FINAL SINGLE POINT ENERGY      -652.851021728232
FINAL SINGLE POINT ENERGY      -652.851069222858
FINAL SINGLE POINT ENERGY      -652.851078879108
FINAL SINGLE POINT ENERGY      -652.851088777865
FINAL SINGLE POINT ENERGY      -652.851645165644
FINAL SINGLE POINT ENERGY      -652.852210671260
FINAL SINGLE POINT ENERGY      -652.852904971280
FINAL SINGLE POINT ENERGY      -652.853657019117
FINAL SINGLE POINT ENERGY      -652.854349056919
FINAL SINGLE POINT ENERGY      -652.854884756416
FINAL SINGLE POINT ENERGY      -652.855177249008
FINAL SINGLE POINT ENERGY      -652.855224081009
FINAL SINGLE POINT ENERGY      -652.855226502824
                    ***********************HURRAY********************

CARTESIAN COORDINATES (ANGSTROEM)
---------------------------------
  C    -21.003341   26.317885   46.347451
  C    -20.232902   27.600377   46.035006
  C    -20.307161   28.359994   47.384942
  C    -20.237401   27.216097   48.418518
  O    -20.583283   25.979404   47.676782
  H    -20.767352   25.477816   45.694582
  H    -19.196875   27.329198   45.799671
  H    -20.624147   28.171920   45.191838
  H    -19.492984   29.081485   47.504386
  H    -21.257550   28.896647   47.462497
  H    -20.943603   27.337668   49.243813
  H    -19.230567   27.068796   48.821159
  C    -23.162542   27.174746   45.337467
  H    -23.871066   27.853425   45.824797
  H    -22.484243   27.761930   44.710460
  O    -22.456341   26.509754   46.423653
  C    -23.976305   26.252504   44.425372
  C    -23.197822   25.159515   43.676751
  C    -23.147805   24.016651   44.733832
  C    -24.512982   24.160665   45.446613
  O    -25.012020   25.517635   45.132971
  H    -24.500048   26.909607   43.719093
  H    -23.769757   24.844137   42.794260
  O    -21.898496   25.676820   43.278646
  H    -23.022746   23.028465   44.277452
  H    -22.326077   24.196033   45.424884
  H    -24.424337   24.059874   46.531487
  H    -25.259209   23.451221   45.074464
  H    -21.432038   25.027732   42.716153

 Multiplicity           Mult            ....    1
 Number of Electrons    NEL             ....  102
 Basis Dimension        Dim             ....  149

ORBITAL ENERGIES
----------------

  NO   OCC          E(Eh)            E(eV)
   0   2.0000     -19.153412      -521.1908
   1   2.0000     -19.132424      -520.6197
   2   2.0000     -19.130824      -520.5762
   3   2.0000     -19.129218      -520.5325
   4   2.0000     -10.269814      -279.4559
   5   2.0000     -10.243967      -278.7525
   6   2.0000     -10.228300      -278.3262
   7   2.0000     -10.219200      -278.0786
   8   2.0000     -10.219031      -278.0740
   9   2.0000     -10.218533      -278.0604
  10   2.0000     -10.182055      -277.0678
  11   2.0000     -10.181160      -277.0434
  12   2.0000     -10.180223      -277.0179
  13   2.0000      -1.043927       -28.4067
  14   2.0000      -1.032142       -28.0860
  15   2.0000      -1.012171       -27.5426
  16   2.0000      -0.981092       -26.6969
  17   2.0000      -0.780005       -21.2250
  18   2.0000      -0.774098       -21.0643
  19   2.0000      -0.761647       -20.7255
  20   2.0000      -0.726641       -19.7729
  21   2.0000      -0.673244       -18.3199
  22   2.0000      -0.601322       -16.3628
  23   2.0000      -0.596041       -16.2191
  24   2.0000      -0.588909       -16.0250
  25   2.0000      -0.553147       -15.0519
  26   2.0000      -0.528345       -14.3770
  27   2.0000      -0.509688       -13.8693
  28   2.0000      -0.492642       -13.4055
  29   2.0000      -0.490486       -13.3468
  30   2.0000      -0.460019       -12.5178
  31   2.0000      -0.451947       -12.2981
  32   2.0000      -0.441494       -12.0137
  33   2.0000      -0.429270       -11.6810
  34   2.0000      -0.421957       -11.4820
  35   2.0000      -0.407635       -11.0923
  36   2.0000      -0.399202       -10.8628
  37   2.0000      -0.392440       -10.6788
  38   2.0000      -0.373415       -10.1611
  39   2.0000      -0.361546        -9.8382
  40   2.0000      -0.356586        -9.7032
  41   2.0000      -0.349431        -9.5085
  42   2.0000      -0.344485        -9.3739
  43   2.0000      -0.332979        -9.0608
  44   2.0000      -0.306131        -8.3303
  45   2.0000      -0.297011        -8.0821
  46   2.0000      -0.289077        -7.8662
  47   2.0000      -0.274920        -7.4810
  48   2.0000      -0.257489        -7.0066
  49   2.0000      -0.250544        -6.8176
  50   2.0000      -0.227743        -6.1972
  51   0.0000       0.050450         1.3728
  52   0.0000       0.082796         2.2530
  53   0.0000       0.097016         2.6399
  54   0.0000       0.107811         2.9337
  55   0.0000       0.118427         3.2226

MULLIKEN ATOMIC CHARGES
-----------------------
   0 C :    0.319748
   1 C :   -0.288192
   2 C :   -0.297718
   3 C :    0.002594
   4 O :   -0.505925
   5 H :    0.142541
   6 H :    0.146159
   7 H :    0.151644
   8 H :    0.139383
   9 H :    0.156145
  10 H :    0.151866
  11 H :    0.138406
  12 C :   -0.004033
  13 H :    0.155096
  14 H :    0.137916
  15 O :   -0.525651
  16 C :    0.099760
  17 C :    0.076136
  18 C :   -0.311188
  19 C :   -0.006400
  20 O :   -0.519974
  21 H :    0.141466
  22 H :    0.139679
  23 O :   -0.616485
  24 H :    0.126041
  25 H :    0.186692
  26 H :    0.163339
  27 H :    0.137019
  28 H :    0.363933
Sum of atomic charges:   -0.0000000

LOEWDIN ATOMIC CHARGES
----------------------
   0 C :    0.181863
   1 C :   -0.229289
   2 C :   -0.217689
   3 C :   -0.025327
   4 O :   -0.307801
   5 H :    0.094990
   6 H :    0.116018
   7 H :    0.117165
   8 H :    0.112828
   9 H :    0.115078
  10 H :    0.108161
  11 H :    0.100606
  12 C :   -0.041552
  13 H :    0.114129
  14 H :    0.104441
  15 O :   -0.335953
  16 C :    0.026291
  17 C :    0.032424
  18 C :   -0.242322
  19 C :   -0.024021
  20 O :   -0.321025
  21 H :    0.110651
  22 H :    0.098368
  23 O :   -0.422454
  24 H :    0.106123
  25 H :    0.130644
  26 H :    0.113486
  27 H :    0.098122
  28 H :    0.286045

  Mayer bond orders larger than 0.100000
B(  0-C ,  1-C ) :   0.9341 B(  0-C ,  4-O ) :   0.9260 B(  0-C ,  5-H ) :   0.9039
B(  0-C , 15-O ) :   0.8301 B(  1-C ,  2-C ) :   0.9479 B(  1-C ,  6-H ) :   0.9355
B(  1-C ,  7-H ) :   0.9274 B(  2-C ,  3-C ) :   0.9552 B(  2-C ,  8-H ) :   0.9456
B(  2-C ,  9-H ) :   0.9460 B(  3-C ,  4-O ) :   0.8381 B(  3-C , 10-H ) :   0.9348
B(  3-C , 11-H ) :   0.9403 B( 12-C , 13-H ) :   0.9329 B( 12-C , 14-H ) :   0.8979
B( 12-C , 15-O ) :   0.8689 B( 12-C , 16-C ) :   0.8997 B( 16-C , 17-C ) :   0.9267
B( 16-C , 20-O ) :   0.8833 B( 16-C , 21-H ) :   0.9238 B( 17-C , 18-C ) :   0.9223
B( 17-C , 22-H ) :   0.9255 B( 17-C , 23-O ) :   0.8687 B( 18-C , 19-C ) :   0.9489
B( 18-C , 24-H ) :   0.9431 B( 18-C , 25-H ) :   0.9217 B( 19-C , 20-O ) :   0.8424
B( 19-C , 26-H ) :   0.9297 B( 19-C , 27-H ) :   0.9361 B( 23-O , 28-H ) :   0.8020

FINAL SINGLE POINT ENERGY      -652.855226843378

DIPOLE MOMENT
-------------
                                X             Y             Z
Electronic contribution:     -2.81972      -2.02749      -0.64139
Nuclear contribution   :      3.66256       2.08392      -0.47267
                        -----------------------------------------
Total Dipole Moment    :      0.84283       0.05642      -1.11407
                        -----------------------------------------
Magnitude (a.u.)       :      1.39810
Magnitude (Debye)      :      3.55370

Rotational constants in cm-1:     0.050029     0.016005     0.015197
Rotational constants in MHz :  1499.844145   479.815492   455.606978

                             ****ORCA TERMINATED NORMALLY****
TOTAL RUN TIME: 0 days 1 hours 47 minutes 32 seconds 490 msec
