                         Program Version 4.2.0 -  RELEASE  -
|  1> # Test redundant internal optimization
|  2> #
|  3> ! RKS B3LYP  Opt TightSCF SmallPrint
|  4>
|  5> %basis
|  6>         Basis "6-31G"
|  7> end
|  8>
|  9> %geom
| 10> Constraints
| 11> { D 4  0  15  12  210.0   C } # D for Dihedral angle
| 12> { D 0  15  12  16  240.0   C } # D for Dihedral angle
| 13> { D 0  4  3  2   C } # D for Dihedral angle
| 14> { D 4  3  2  1   C } # D for Dihedral angle
| 15> { D 3  2  1  0   C } # D for Dihedral angle
| 16> { D 2  1  0  4   C } # D for Dihedral angle
| 17> { D 1  0  4  3   C } # D for Dihedral angle
| 18> { D 16  20  19  18   C } # D for Dihedral angle
| 19> { D 20  19  18  17   C } # D for Dihedral angle
| 20> { D 19  18  17  16   C } # D for Dihedral angle
| 21> { D 18  17  16  20   C } # D for Dihedral angle
| 22> { D 17  16  20  19   C } # D for Dihedral angle
| 23> { D 15  12  16  20   C } # D for Dihedral angle
| 24> end
| 25> end
| 26>
| 27>
| 28> #%pal
| 29> #nprocs 8
| 30> #end
| 31>
| 32> * xyz 0 1
| 33> C  -21.048   26.222   46.251
| 34> C  -20.361   27.558   45.944
| 35> C  -20.329   28.222   47.341
| 36> C  -20.110   27.022   48.296
| 37> O  -20.473   25.807   47.535
| 38> H  -20.833   25.428   45.533
| 39> H  -19.344   27.382   45.576
| 40> H  -20.898   28.157   45.201
| 41> H  -19.543   28.978   47.434
| 42> H  -21.289   28.710   47.548
| 43> H  -20.733   27.082   49.195
| 44> H  -19.064   26.913   48.597
| 45> C  -23.389   26.110   45.076
| 46> H  -22.695   25.820   44.277
| 47> H  -24.095   25.285   45.234
| 48> O  -22.586   26.394   46.375
| 49> C  -24.203   27.342   44.592
| 50> C  -25.071   26.994   43.378
| 51> C  -26.267   26.272   44.044
| 52> C  -26.435   27.033   45.383
| 53> O  -25.166   27.756   45.618
| 54> H  -23.522   28.182   44.435
| 55> H  -25.403   27.910   42.876
| 56> O  -24.336   26.106   42.337
| 57> H  -27.174   26.300   43.432
| 58> H  -26.017   25.220   44.227
| 59> H  -26.626   26.360   46.227
| 60> H  -27.230   27.783   45.340
| 61> H  -23.995   25.181   42.816
| 62> *
| 63>
| 64>                          ****END OF INPUT****
 Total Charge           Charge          ....    0
 Multiplicity           Mult            ....    1
 Number of Electrons    NEL             ....  102
FINAL SINGLE POINT ENERGY      -652.825079797444
FINAL SINGLE POINT ENERGY      -652.848158040849
FINAL SINGLE POINT ENERGY      -652.852331114887
FINAL SINGLE POINT ENERGY      -652.853126976274
FINAL SINGLE POINT ENERGY      -652.853288767268
FINAL SINGLE POINT ENERGY      -652.853323221819
FINAL SINGLE POINT ENERGY      -652.853331053593
FINAL SINGLE POINT ENERGY      -652.853332926950
                    ***********************HURRAY********************

CARTESIAN COORDINATES (ANGSTROEM)
---------------------------------
  C    -21.050211   26.203108   46.196294
  C    -20.403641   27.555289   45.904000
  C    -20.464129   28.245522   47.287830
  C    -20.246838   27.073093   48.266838
  O    -20.533892   25.840639   47.484796
  H    -20.794402   25.398845   45.498099
  H    -19.363971   27.400573   45.589828
  H    -20.922694   28.114869   45.121456
  H    -19.710811   29.030947   47.399705
  H    -21.454579   28.686700   47.432390
  H    -20.917863   27.100725   49.128426
  H    -19.211911   26.989532   48.611738
  C    -23.272279   26.023619   45.111034
  H    -22.615938   25.721943   44.282046
  H    -23.930933   25.180801   45.358502
  O    -22.498053   26.327284   46.301752
  C    -24.088993   27.239106   44.669742
  C    -24.974000   26.974593   43.440347
  C    -26.228722   26.310432   44.084923
  C    -26.347955   27.052753   45.434623
  O    -25.029879   27.687159   45.690521
  H    -23.404725   28.077377   44.507362
  H    -25.243580   27.925512   42.975784
  O    -24.347732   26.211899   42.378376
  H    -27.119740   26.416575   43.459943
  H    -26.043896   25.237685   44.231763
  H    -26.589733   26.386069   46.267943
  H    -27.088362   27.857632   45.400191
  H    -24.335539   25.258722   42.601749

 Multiplicity           Mult            ....    1
 Number of Electrons    NEL             ....  102
 Basis Dimension        Dim             ....  149

ORBITAL ENERGIES
----------------

  NO   OCC          E(Eh)            E(eV)
   0   2.0000     -19.153222      -521.1857
   1   2.0000     -19.137695      -520.7631
   2   2.0000     -19.135744      -520.7101
   3   2.0000     -19.135046      -520.6911
   4   2.0000     -10.276473      -279.6370
   5   2.0000     -10.247791      -278.8566
   6   2.0000     -10.232124      -278.4302
   7   2.0000     -10.231972      -278.4261
   8   2.0000     -10.231353      -278.4093
   9   2.0000     -10.219722      -278.0928
  10   2.0000     -10.198597      -277.5179
  11   2.0000     -10.181956      -277.0651
  12   2.0000     -10.180178      -277.0167
  13   2.0000      -1.048852       -28.5407
  14   2.0000      -1.035855       -28.1870
  15   2.0000      -1.017248       -27.6807
  16   2.0000      -0.989668       -26.9302
  17   2.0000      -0.785283       -21.3686
  18   2.0000      -0.781228       -21.2583
  19   2.0000      -0.767520       -20.8853
  20   2.0000      -0.729244       -19.8437
  21   2.0000      -0.680903       -18.5283
  22   2.0000      -0.614087       -16.7102
  23   2.0000      -0.594494       -16.1770
  24   2.0000      -0.590786       -16.0761
  25   2.0000      -0.578674       -15.7465
  26   2.0000      -0.527394       -14.3511
  27   2.0000      -0.512236       -13.9386
  28   2.0000      -0.498987       -13.5781
  29   2.0000      -0.489636       -13.3237
  30   2.0000      -0.465994       -12.6803
  31   2.0000      -0.454985       -12.3808
  32   2.0000      -0.446475       -12.1492
  33   2.0000      -0.436385       -11.8746
  34   2.0000      -0.427601       -11.6356
  35   2.0000      -0.421118       -11.4592
  36   2.0000      -0.407089       -11.0775
  37   2.0000      -0.397845       -10.8259
  38   2.0000      -0.377333       -10.2678
  39   2.0000      -0.370705       -10.0874
  40   2.0000      -0.356486        -9.7005
  41   2.0000      -0.353136        -9.6093
  42   2.0000      -0.348069        -9.4714
  43   2.0000      -0.330790        -9.0013
  44   2.0000      -0.319103        -8.6832
  45   2.0000      -0.308130        -8.3846
  46   2.0000      -0.300565        -8.1788
  47   2.0000      -0.274111        -7.4589
  48   2.0000      -0.259404        -7.0587
  49   2.0000      -0.253273        -6.8919
  50   2.0000      -0.233733        -6.3602
  51   0.0000       0.047981         1.3056
  52   0.0000       0.078243         2.1291
  53   0.0000       0.082814         2.2535
  54   0.0000       0.088342         2.4039
  55   0.0000       0.099774         2.7150

MULLIKEN ATOMIC CHARGES
-----------------------
   0 C :    0.285686
   1 C :   -0.261722
   2 C :   -0.301212
   3 C :   -0.000742
   4 O :   -0.502619
   5 H :    0.135515
   6 H :    0.141127
   7 H :    0.143462
   8 H :    0.139594
   9 H :    0.171657
  10 H :    0.155829
  11 H :    0.139065
  12 C :   -0.020672
  13 H :    0.126536
  14 H :    0.136374
  15 O :   -0.496237
  16 C :    0.095058
  17 C :    0.083397
  18 C :   -0.334268
  19 C :   -0.007307
  20 O :   -0.503246
  21 H :    0.154552
  22 H :    0.168304
  23 O :   -0.600304
  24 H :    0.159024
  25 H :    0.137983
  26 H :    0.148268
  27 H :    0.150466
  28 H :    0.356431
Sum of atomic charges:   -0.0000000

LOEWDIN ATOMIC CHARGES
----------------------
   0 C :    0.178344
   1 C :   -0.227880
   2 C :   -0.217268
   3 C :   -0.024650
   4 O :   -0.306835
   5 H :    0.094425
   6 H :    0.111691
   7 H :    0.113794
   8 H :    0.113387
   9 H :    0.123900
  10 H :    0.110314
  11 H :    0.100929
  12 C :   -0.049298
  13 H :    0.097584
  14 H :    0.099935
  15 O :   -0.322628
  16 C :    0.014905
  17 C :    0.033184
  18 C :   -0.243402
  19 C :   -0.029178
  20 O :   -0.313441
  21 H :    0.112760
  22 H :    0.119652
  23 O :   -0.408656
  24 H :    0.122932
  25 H :    0.105356
  26 H :    0.105509
  27 H :    0.106514
  28 H :    0.278119

  Mayer bond orders larger than 0.100000
B(  0-C ,  1-C ) :   0.9316 B(  0-C ,  4-O ) :   0.9394 B(  0-C ,  5-H ) :   0.9184
B(  0-C , 15-O ) :   0.8407 B(  1-C ,  2-C ) :   0.9549 B(  1-C ,  6-H ) :   0.9339
B(  1-C ,  7-H ) :   0.9357 B(  2-C ,  3-C ) :   0.9555 B(  2-C ,  8-H ) :   0.9451
B(  2-C ,  9-H ) :   0.9410 B(  3-C ,  4-O ) :   0.8346 B(  3-C , 10-H ) :   0.9344
B(  3-C , 11-H ) :   0.9399 B( 12-C , 13-H ) :   0.9038 B( 12-C , 14-H ) :   0.9295
B( 12-C , 15-O ) :   0.8583 B( 12-C , 16-C ) :   0.8941 B( 16-C , 17-C ) :   0.8703
B( 16-C , 20-O ) :   0.8749 B( 16-C , 21-H ) :   0.9301 B( 17-C , 18-C ) :   0.9250
B( 17-C , 22-H ) :   0.9323 B( 17-C , 23-O ) :   0.8937 B( 18-C , 19-C ) :   0.9398
B( 18-C , 24-H ) :   0.9415 B( 18-C , 25-H ) :   0.9397 B( 19-C , 20-O ) :   0.8498
B( 19-C , 26-H ) :   0.9311 B( 19-C , 27-H ) :   0.9374 B( 23-O , 28-H ) :   0.7988

FINAL SINGLE POINT ENERGY      -652.853333281113

DIPOLE MOMENT
-------------
                                X             Y             Z
Electronic contribution:     -0.28083      -1.77083       0.15574
Nuclear contribution   :     -0.04958       1.71539      -0.79236
                        -----------------------------------------
Total Dipole Moment    :     -0.33041      -0.05544      -0.63662
                        -----------------------------------------
Magnitude (a.u.)       :      0.71940
Magnitude (Debye)      :      1.82856

Rotational constants in cm-1:     0.056456     0.012449     0.011619
Rotational constants in MHz :  1692.496027   373.222375   348.329598

                             ****ORCA TERMINATED NORMALLY****
TOTAL RUN TIME: 0 days 0 hours 59 minutes 4 seconds 919 msec
