                         Program Version 4.2.0 -  RELEASE  -
|  1> # Test redundant internal optimization
|  2> #
|  3> ! RKS B3LYP  Opt TightSCF SmallPrint
|  4>
|  5> %basis
|  6>         Basis "6-31G"
|  7> end
|  8>
|  9> %geom
| 10> Constraints
| 11> { D 4  0  15  12  300.0   C } # D for Dihedral angle
| 12> { D 0  15  12  16  240.0   C } # D for Dihedral angle
| 13> { D 0  4  3  2   C } # D for Dihedral angle
| 14> { D 4  3  2  1   C } # D for Dihedral angle
| 15> { D 3  2  1  0   C } # D for Dihedral angle
| 16> { D 2  1  0  4   C } # D for Dihedral angle
| 17> { D 1  0  4  3   C } # D for Dihedral angle
| 18> { D 16  20  19  18   C } # D for Dihedral angle
| 19> { D 20  19  18  17   C } # D for Dihedral angle
| 20> { D 19  18  17  16   C } # D for Dihedral angle
| 21> { D 18  17  16  20   C } # D for Dihedral angle
| 22> { D 17  16  20  19   C } # D for Dihedral angle
| 23> { D 15  12  16  20   C } # D for Dihedral angle
| 24> end
| 25> end
| 26>
| 27>
| 28> #%pal
| 29> #nprocs 8
| 30> #end
| 31>
| 32> * xyz 0 1
| 33> C  -21.048   26.222   46.251
| 34> C  -20.361   27.558   45.944
| 35> C  -20.329   28.222   47.341
| 36> C  -20.110   27.022   48.296
| 37> O  -20.473   25.807   47.535
| 38> H  -20.833   25.428   45.533
| 39> H  -19.344   27.382   45.576
| 40> H  -20.898   28.157   45.201
| 41> H  -19.543   28.978   47.434
| 42> H  -21.289   28.710   47.548
| 43> H  -20.733   27.082   49.195
| 44> H  -19.064   26.913   48.597
| 45> C  -23.362   25.116   46.798
| 46> H  -22.651   24.294   46.946
| 47> H  -23.893   25.285   47.743
| 48> O  -22.586   26.394   46.375
| 49> C  -24.409   24.672   45.740
| 50> C  -23.733   24.251   44.430
| 51> C  -23.246   22.823   44.773
| 52> C  -24.362   22.285   45.702
| 53> O  -25.110   23.464   46.188
| 54> H  -25.161   25.455   45.629
| 55> H  -24.469   24.224   43.619
| 56> O  -22.576   25.198   44.009
| 57> H  -23.104   22.198   43.885
| 58> H  -22.288   22.870   45.305
| 59> H  -23.964   21.734   46.561
| 60> H  -25.075   21.647   45.173
| 61> H  -21.826   25.240   44.807
| 62> *
| 63>
| 64>                          ****END OF INPUT****
 Total Charge           Charge          ....    0
 Multiplicity           Mult            ....    1
 Number of Electrons    NEL             ....  102
FINAL SINGLE POINT ENERGY      -652.812878418113
FINAL SINGLE POINT ENERGY      -652.844943564374
FINAL SINGLE POINT ENERGY      -652.856754129089
FINAL SINGLE POINT ENERGY      -652.859401434284
FINAL SINGLE POINT ENERGY      -652.860313719477
FINAL SINGLE POINT ENERGY      -652.860974353422
FINAL SINGLE POINT ENERGY      -652.861744941174
FINAL SINGLE POINT ENERGY      -652.862511090989
FINAL SINGLE POINT ENERGY      -652.863150439832
FINAL SINGLE POINT ENERGY      -652.861859696655
FINAL SINGLE POINT ENERGY      -652.865141623669
FINAL SINGLE POINT ENERGY      -652.866336379246
FINAL SINGLE POINT ENERGY      -652.867095136460
FINAL SINGLE POINT ENERGY      -652.867383442860
FINAL SINGLE POINT ENERGY      -652.867439044060
FINAL SINGLE POINT ENERGY      -652.867446226223
FINAL SINGLE POINT ENERGY      -652.867446953936
                    ***********************HURRAY********************

CARTESIAN COORDINATES (ANGSTROEM)
---------------------------------
  C    -21.008650   26.114711   46.305918
  C    -20.374023   27.464365   45.974773
  C    -20.408492   28.175341   47.346383
  C    -20.165382   27.023715   48.345540
  O    -20.461929   25.771855   47.596352
  H    -20.779225   25.287401   45.632097
  H    -19.344840   27.300877   45.636647
  H    -20.918042   28.006722   45.198096
  H    -19.653608   28.963245   47.430501
  H    -21.394722   28.621226   47.502826
  H    -20.813582   27.070203   49.224193
  H    -19.123003   26.951003   48.668552
  C    -23.235229   25.158746   46.816209
  H    -22.557746   24.344583   47.091394
  H    -23.786407   25.455267   47.712457
  O    -22.451466   26.321994   46.363566
  C    -24.235895   24.711356   45.742225
  C    -23.648200   24.224790   44.408604
  C    -23.226233   22.770999   44.760274
  C    -24.323127   22.320596   45.749578
  O    -24.979735   23.559057   46.246137
  H    -24.969983   25.508578   45.586064
  H    -24.450727   24.208973   43.658648
  O    -22.527808   24.986419   43.896247
  H    -23.166819   22.132383   43.874976
  H    -22.236043   22.798476   45.225373
  H    -23.927017   21.761988   46.603196
  H    -25.103749   21.722898   45.269062
  H    -22.568318   25.893232   44.268110

 Multiplicity           Mult            ....    1
 Number of Electrons    NEL             ....  102
 Basis Dimension        Dim             ....  149

ORBITAL ENERGIES
----------------

  NO   OCC          E(Eh)            E(eV)
   0   2.0000     -19.152890      -521.1766
   1   2.0000     -19.145222      -520.9680
   2   2.0000     -19.141863      -520.8766
   3   2.0000     -19.136403      -520.7280
   4   2.0000     -10.279157      -279.7101
   5   2.0000     -10.238806      -278.6121
   6   2.0000     -10.233975      -278.4806
   7   2.0000     -10.228656      -278.3359
   8   2.0000     -10.228296      -278.3261
   9   2.0000     -10.227509      -278.3047
  10   2.0000     -10.188812      -277.2517
  11   2.0000     -10.187621      -277.2193
  12   2.0000     -10.184568      -277.1362
  13   2.0000      -1.057652       -28.7802
  14   2.0000      -1.029864       -28.0240
  15   2.0000      -1.011106       -27.5136
  16   2.0000      -0.994878       -27.0720
  17   2.0000      -0.791982       -21.5509
  18   2.0000      -0.776390       -21.1266
  19   2.0000      -0.765609       -20.8333
  20   2.0000      -0.731865       -19.9150
  21   2.0000      -0.675731       -18.3876
  22   2.0000      -0.603764       -16.4292
  23   2.0000      -0.599238       -16.3061
  24   2.0000      -0.594413       -16.1748
  25   2.0000      -0.576078       -15.6759
  26   2.0000      -0.521914       -14.2020
  27   2.0000      -0.518087       -14.0979
  28   2.0000      -0.500212       -13.6114
  29   2.0000      -0.492673       -13.4063
  30   2.0000      -0.466626       -12.6975
  31   2.0000      -0.453799       -12.3485
  32   2.0000      -0.443737       -12.0747
  33   2.0000      -0.439822       -11.9682
  34   2.0000      -0.426008       -11.5923
  35   2.0000      -0.414225       -11.2716
  36   2.0000      -0.405469       -11.0334
  37   2.0000      -0.388230       -10.5643
  38   2.0000      -0.380289       -10.3482
  39   2.0000      -0.365620        -9.9490
  40   2.0000      -0.360551        -9.8111
  41   2.0000      -0.354058        -9.6344
  42   2.0000      -0.350918        -9.5490
  43   2.0000      -0.337394        -9.1810
  44   2.0000      -0.335235        -9.1222
  45   2.0000      -0.302551        -8.2328
  46   2.0000      -0.295410        -8.0385
  47   2.0000      -0.279883        -7.6160
  48   2.0000      -0.266332        -7.2473
  49   2.0000      -0.259717        -7.0672
  50   2.0000      -0.241545        -6.5728
  51   0.0000       0.056426         1.5354
  52   0.0000       0.080274         2.1844
  53   0.0000       0.093787         2.5521
  54   0.0000       0.097648         2.6571
  55   0.0000       0.110985         3.0200

MULLIKEN ATOMIC CHARGES
-----------------------
   0 C :    0.264624
   1 C :   -0.264068
   2 C :   -0.298399
   3 C :   -0.005953
   4 O :   -0.514800
   5 H :    0.173774
   6 H :    0.151427
   7 H :    0.151667
   8 H :    0.142926
   9 H :    0.163430
  10 H :    0.149080
  11 H :    0.145428
  12 C :   -0.007904
  13 H :    0.157448
  14 H :    0.161850
  15 O :   -0.549579
  16 C :    0.048255
  17 C :    0.105035
  18 C :   -0.301142
  19 C :   -0.020157
  20 O :   -0.519877
  21 H :    0.155132
  22 H :    0.145881
  23 O :   -0.623379
  24 H :    0.154549
  25 H :    0.157922
  26 H :    0.147935
  27 H :    0.149884
  28 H :    0.379010
Sum of atomic charges:   -0.0000000

LOEWDIN ATOMIC CHARGES
----------------------
   0 C :    0.161750
   1 C :   -0.214772
   2 C :   -0.215990
   3 C :   -0.027429
   4 O :   -0.325072
   5 H :    0.108190
   6 H :    0.117540
   7 H :    0.120461
   8 H :    0.114452
   9 H :    0.119720
  10 H :    0.106521
  11 H :    0.104425
  12 C :   -0.043455
  13 H :    0.112756
  14 H :    0.116894
  15 O :   -0.346169
  16 C :    0.010785
  17 C :    0.035755
  18 C :   -0.228051
  19 C :   -0.031480
  20 O :   -0.321359
  21 H :    0.111505
  22 H :    0.100586
  23 O :   -0.421597
  24 H :    0.122320
  25 H :    0.117198
  26 H :    0.104609
  27 H :    0.105791
  28 H :    0.284115

  Mayer bond orders larger than 0.100000
B(  0-C ,  1-C ) :   0.9485 B(  0-C ,  4-O ) :   0.9037 B(  0-C ,  5-H ) :   0.9005
B(  0-C , 15-O ) :   0.8189 B(  1-C ,  2-C ) :   0.9538 B(  1-C ,  6-H ) :   0.9390
B(  1-C ,  7-H ) :   0.9375 B(  2-C ,  3-C ) :   0.9566 B(  2-C ,  8-H ) :   0.9449
B(  2-C ,  9-H ) :   0.9440 B(  3-C ,  4-O ) :   0.8325 B(  3-C , 10-H ) :   0.9357
B(  3-C , 11-H ) :   0.9405 B( 12-C , 13-H ) :   0.9210 B( 12-C , 14-H ) :   0.9335
B( 12-C , 15-O ) :   0.8012 B( 12-C , 16-C ) :   0.8998 B( 16-C , 17-C ) :   0.9111
B( 16-C , 20-O ) :   0.8526 B( 16-C , 21-H ) :   0.9290 B( 17-C , 18-C ) :   0.9250
B( 17-C , 22-H ) :   0.9227 B( 17-C , 23-O ) :   0.9013 B( 18-C , 19-C ) :   0.9419
B( 18-C , 24-H ) :   0.9430 B( 18-C , 25-H ) :   0.9394 B( 19-C , 20-O ) :   0.8351
B( 19-C , 26-H ) :   0.9330 B( 19-C , 27-H ) :   0.9376 B( 23-O , 28-H ) :   0.7568

FINAL SINGLE POINT ENERGY      -652.867446731907

DIPOLE MOMENT
-------------
                                X             Y             Z
Electronic contribution:     -2.79730      -1.06428      -0.60886
Nuclear contribution   :      3.19423       1.50760       0.69070
                        -----------------------------------------
Total Dipole Moment    :      0.39693       0.44332       0.08184
                        -----------------------------------------
Magnitude (a.u.)       :      0.60066
Magnitude (Debye)      :      1.52675

Rotational constants in cm-1:     0.058205     0.014105     0.013101
Rotational constants in MHz :  1744.955023   422.858760   392.754965

                             ****ORCA TERMINATED NORMALLY****
TOTAL RUN TIME: 0 days 2 hours 42 minutes 10 seconds 879 msec
