                         Program Version 4.2.0 -  RELEASE  -
|  1> # Test redundant internal optimization
|  2> #
|  3> ! RKS B3LYP  Opt TightSCF SmallPrint
|  4>
|  5> %basis
|  6>         Basis "6-31G"
|  7> end
|  8>
|  9> %geom
| 10> Constraints
| 11> { D 4  0  15  12  315.0   C } # D for Dihedral angle
| 12> { D 0  15  12  16  225.0   C } # D for Dihedral angle
| 13> { D 0  4  3  2   C } # D for Dihedral angle
| 14> { D 4  3  2  1   C } # D for Dihedral angle
| 15> { D 3  2  1  0   C } # D for Dihedral angle
| 16> { D 2  1  0  4   C } # D for Dihedral angle
| 17> { D 1  0  4  3   C } # D for Dihedral angle
| 18> { D 16  20  19  18   C } # D for Dihedral angle
| 19> { D 20  19  18  17   C } # D for Dihedral angle
| 20> { D 19  18  17  16   C } # D for Dihedral angle
| 21> { D 18  17  16  20   C } # D for Dihedral angle
| 22> { D 17  16  20  19   C } # D for Dihedral angle
| 23> { D 15  12  16  20   C } # D for Dihedral angle
| 24> end
| 25> end
| 26>
| 27>
| 28> #%pal
| 29> #nprocs 8
| 30> #end
| 31>
| 32> * xyz 0 1
| 33> C  -21.048   26.222   46.251
| 34> C  -20.361   27.558   45.944
| 35> C  -20.329   28.222   47.341
| 36> C  -20.110   27.022   48.296
| 37> O  -20.473   25.807   47.535
| 38> H  -20.833   25.428   45.533
| 39> H  -19.344   27.382   45.576
| 40> H  -20.898   28.157   45.201
| 41> H  -19.543   28.978   47.434
| 42> H  -21.289   28.710   47.548
| 43> H  -20.733   27.082   49.195
| 44> H  -19.064   26.913   48.597
| 45> C  -23.319   25.255   47.135
| 46> H  -22.647   24.393   47.231
| 47> H  -23.600   25.584   48.144
| 48> O  -22.586   26.394   46.375
| 49> C  -24.613   24.787   46.413
| 50> C  -25.566   25.961   46.163
| 51> C  -24.928   26.623   44.918
| 52> C  -24.375   25.415   44.122
| 53> O  -24.299   24.284   45.072
| 54> H  -25.054   23.958   46.971
| 55> O  -26.988   25.432   45.832
| 56> H  -25.642   26.645   47.015
| 57> H  -25.643   27.214   44.337
| 58> H  -24.112   27.290   45.223
| 59> H  -23.378   25.605   43.709
| 60> H  -25.041   25.109   43.310
| 61> H  -26.937   24.745   44.980
| 62> *
| 63>
| 64>                          ****END OF INPUT****
 Total Charge           Charge          ....    0
 Multiplicity           Mult            ....    1
 Number of Electrons    NEL             ....  102
FINAL SINGLE POINT ENERGY      -652.840221169293
FINAL SINGLE POINT ENERGY      -652.863215102624
FINAL SINGLE POINT ENERGY      -652.867324091070
FINAL SINGLE POINT ENERGY      -652.868399876532
FINAL SINGLE POINT ENERGY      -652.868507650408
FINAL SINGLE POINT ENERGY      -652.868520204757
                    ***********************HURRAY********************

CARTESIAN COORDINATES (ANGSTROEM)
---------------------------------
  C    -21.070300   26.152912   46.293046
  C    -20.432562   27.504788   45.975852
  C    -20.394364   28.169214   47.369339
  C    -20.121762   26.983588   48.320958
  O    -20.469172   25.758406   47.548096
  H    -20.860681   25.338412   45.593634
  H    -19.421932   27.341238   45.585372
  H    -21.008922   28.073482   45.242865
  H    -19.626526   28.945388   47.444619
  H    -21.366154   28.622654   47.585876
  H    -20.727819   27.010920   49.230138
  H    -19.066890   26.888749   48.593608
  C    -23.235989   25.316652   47.124801
  H    -22.600674   24.434692   47.252038
  H    -23.491880   25.697613   48.121628
  O    -22.503169   26.348756   46.393043
  C    -24.502917   24.908242   46.378221
  C    -25.545097   26.003818   46.110914
  C    -24.991553   26.658064   44.817243
  C    -24.378719   25.457910   44.054174
  O    -24.195148   24.374395   45.049487
  H    -24.965823   24.091358   46.946182
  O    -26.864504   25.419121   45.914963
  H    -25.664177   26.708609   46.934875
  H    -25.791593   27.154397   44.261160
  H    -24.217921   27.381548   45.080638
  H    -23.408243   25.698047   43.611836
  H    -25.039808   25.067691   43.272952
  H    -26.788702   24.664336   45.293441

 Multiplicity           Mult            ....    1
 Number of Electrons    NEL             ....  102
 Basis Dimension        Dim             ....  149

ORBITAL ENERGIES
----------------

  NO   OCC          E(Eh)            E(eV)
   0   2.0000     -19.147373      -521.0265
   1   2.0000     -19.146624      -521.0061
   2   2.0000     -19.136558      -520.7322
   3   2.0000     -19.132322      -520.6169
   4   2.0000     -10.281339      -279.7695
   5   2.0000     -10.234147      -278.4853
   6   2.0000     -10.230657      -278.3903
   7   2.0000     -10.230477      -278.3854
   8   2.0000     -10.227465      -278.3035
   9   2.0000     -10.222279      -278.1623
  10   2.0000     -10.190038      -277.2850
  11   2.0000     -10.189609      -277.2734
  12   2.0000     -10.174759      -276.8693
  13   2.0000      -1.058226       -28.7958
  14   2.0000      -1.030240       -28.0343
  15   2.0000      -1.001695       -27.2575
  16   2.0000      -0.992695       -27.0126
  17   2.0000      -0.793874       -21.6024
  18   2.0000      -0.774094       -21.0642
  19   2.0000      -0.762493       -20.7485
  20   2.0000      -0.732989       -19.9456
  21   2.0000      -0.671415       -18.2701
  22   2.0000      -0.604452       -16.4480
  23   2.0000      -0.597101       -16.2480
  24   2.0000      -0.594814       -16.1857
  25   2.0000      -0.571929       -15.5630
  26   2.0000      -0.524997       -14.2859
  27   2.0000      -0.507721       -13.8158
  28   2.0000      -0.494523       -13.4567
  29   2.0000      -0.489632       -13.3236
  30   2.0000      -0.467372       -12.7178
  31   2.0000      -0.462103       -12.5745
  32   2.0000      -0.446643       -12.1538
  33   2.0000      -0.437444       -11.9035
  34   2.0000      -0.418231       -11.3806
  35   2.0000      -0.409542       -11.1442
  36   2.0000      -0.401192       -10.9170
  37   2.0000      -0.386002       -10.5036
  38   2.0000      -0.376887       -10.2556
  39   2.0000      -0.364139        -9.9087
  40   2.0000      -0.361730        -9.8432
  41   2.0000      -0.357464        -9.7271
  42   2.0000      -0.348502        -9.4832
  43   2.0000      -0.338489        -9.2107
  44   2.0000      -0.322041        -8.7632
  45   2.0000      -0.304815        -8.2944
  46   2.0000      -0.296692        -8.0734
  47   2.0000      -0.272366        -7.4114
  48   2.0000      -0.264147        -7.1878
  49   2.0000      -0.258371        -7.0306
  50   2.0000      -0.239449        -6.5157
  51   0.0000       0.067964         1.8494
  52   0.0000       0.083398         2.2694
  53   0.0000       0.101245         2.7550
  54   0.0000       0.105732         2.8771
  55   0.0000       0.106890         2.9086

MULLIKEN ATOMIC CHARGES
-----------------------
   0 C :    0.291069
   1 C :   -0.263008
   2 C :   -0.300036
   3 C :   -0.008535
   4 O :   -0.512819
   5 H :    0.158966
   6 H :    0.147638
   7 H :    0.156048
   8 H :    0.144374
   9 H :    0.159434
  10 H :    0.146645
  11 H :    0.147325
  12 C :   -0.000891
  13 H :    0.168301
  14 H :    0.132969
  15 O :   -0.537247
  16 C :    0.068051
  17 C :    0.076622
  18 C :   -0.289074
  19 C :   -0.020084
  20 O :   -0.529367
  21 H :    0.154114
  22 O :   -0.604072
  23 H :    0.150843
  24 H :    0.147407
  25 H :    0.173308
  26 H :    0.143520
  27 H :    0.136957
  28 H :    0.361542
Sum of atomic charges:   -0.0000000

LOEWDIN ATOMIC CHARGES
----------------------
   0 C :    0.175554
   1 C :   -0.214704
   2 C :   -0.216649
   3 C :   -0.029083
   4 O :   -0.326502
   5 H :    0.103135
   6 H :    0.115641
   7 H :    0.123253
   8 H :    0.115232
   9 H :    0.117701
  10 H :    0.104873
  11 H :    0.105292
  12 C :   -0.037377
  13 H :    0.119325
  14 H :    0.101342
  15 O :   -0.337669
  16 C :    0.011171
  17 C :    0.038059
  18 C :   -0.243004
  19 C :   -0.033614
  20 O :   -0.332770
  21 H :    0.114948
  22 O :   -0.418114
  23 H :    0.115662
  24 H :    0.118182
  25 H :    0.129081
  26 H :    0.103645
  27 H :    0.096260
  28 H :    0.281131

  Mayer bond orders larger than 0.100000
B(  0-C ,  1-C ) :   0.9494 B(  0-C ,  4-O ) :   0.8999 B(  0-C ,  5-H ) :   0.9194
B(  0-C , 15-O ) :   0.8455 B(  1-C ,  2-C ) :   0.9534 B(  1-C ,  6-H ) :   0.9385
B(  1-C ,  7-H ) :   0.9364 B(  2-C ,  3-C ) :   0.9562 B(  2-C ,  8-H ) :   0.9448
B(  2-C ,  9-H ) :   0.9448 B(  3-C ,  4-O ) :   0.8333 B(  3-C , 10-H ) :   0.9355
B(  3-C , 11-H ) :   0.9404 B( 12-C , 13-H ) :   0.9153 B( 12-C , 14-H ) :   0.9208
B( 12-C , 15-O ) :   0.8310 B( 12-C , 16-C ) :   0.9010 B( 16-C , 17-C ) :   0.9104
B( 16-C , 20-O ) :   0.8642 B( 16-C , 21-H ) :   0.9211 B( 17-C , 18-C ) :   0.9252
B( 17-C , 22-O ) :   0.8892 B( 17-C , 23-H ) :   0.9352 B( 18-C , 19-C ) :   0.9469
B( 18-C , 24-H ) :   0.9372 B( 18-C , 25-H ) :   0.9183 B( 19-C , 20-O ) :   0.8420
B( 19-C , 26-H ) :   0.9351 B( 19-C , 27-H ) :   0.9369 B( 22-O , 28-H ) :   0.7965

FINAL SINGLE POINT ENERGY      -652.868520773828

DIPOLE MOMENT
-------------
                                X             Y             Z
Electronic contribution:     -2.88293      -4.85023      -0.01123
Nuclear contribution   :      3.72426       5.72833      -0.02394
                        -----------------------------------------
Total Dipole Moment    :      0.84133       0.87810      -0.03516
                        -----------------------------------------
Magnitude (a.u.)       :      1.21661
Magnitude (Debye)      :      3.09237

Rotational constants in cm-1:     0.060109     0.013389     0.013052
Rotational constants in MHz :  1802.013991   401.401579   391.297951

                             ****ORCA TERMINATED NORMALLY****
TOTAL RUN TIME: 0 days 0 hours 18 minutes 35 seconds 741 msec
