                         Program Version 4.2.1 -  RELEASE  -
|  1> # Test redundant internal optimization
|  2> #
|  3> ! RKS B3LYP  Opt TightSCF SmallPrint
|  4>
|  5> %basis
|  6>         Basis "6-31G"
|  7> end
|  8>
|  9> %geom
| 10> Constraints
| 11> { D 4  0  19  14  30.0   C } # D for Dihedral angle
| 12> { D 0  19  14  12  150.0   C } # D for Dihedral angle
| 13> { D 0  4  3  2   C } # D for Dihedral angle
| 14> { D 4  3  2  1   C } # D for Dihedral angle
| 15> { D 3  2  1  0   C } # D for Dihedral angle
| 16> { D 2  1  0  4   C } # D for Dihedral angle
| 17> { D 1  0  4  3   C } # D for Dihedral angle
| 18> { D 14  15  16  17   C } # D for Dihedral angle
| 19> { D 15  16  17  12   C } # D for Dihedral angle
| 20> { D 16  17  12  14   C } # D for Dihedral angle
| 21> { D 17  12  14  15   C } # D for Dihedral angle
| 22> { D 12  14  15  16   C } # D for Dihedral angle
| 23> end
| 24> end
| 25>
| 26>
| 27> #%pal
| 28> #nprocs 8
| 29> #end
| 30>
| 31> * xyz 0 1
| 32> C  -21.048   26.222   46.251
| 33> C  -20.361   27.558   45.944
| 34> C  -20.329   28.222   47.341
| 35> C  -20.110   27.022   48.296
| 36> O  -20.473   25.807   47.535
| 37> H  -20.833   25.428   45.533
| 38> H  -19.344   27.382   45.576
| 39> H  -20.898   28.157   45.201
| 40> H  -19.543   28.978   47.434
| 41> H  -21.289   28.710   47.548
| 42> H  -20.733   27.082   49.195
| 43> H  -19.064   26.913   48.597
| 44> C  -24.202   27.611   47.557
| 45> H  -24.405   28.165   48.486
| 46> C  -22.920   26.779   47.672
| 47> C  -23.412   25.554   48.477
| 48> C  -24.859   25.350   47.961
| 49> O  -25.256   26.620   47.312
| 50> H  -24.217   28.306   46.716
| 51> O  -22.472   26.381   46.366
| 52> H  -22.104   27.314   48.169
| 53> H  -22.787   24.668   48.328
| 54> H  -23.415   25.784   49.550
| 55> H  -25.565   25.123   48.766
| 56> H  -24.924   24.566   47.200
| 57> *
| 58>
| 59>                          ****END OF INPUT****
 Total Charge           Charge          ....    0
 Multiplicity           Mult            ....    1
 Number of Electrons    NEL             ....   86
FINAL SINGLE POINT ENERGY      -538.410852646383
FINAL SINGLE POINT ENERGY      -538.426070338977
FINAL SINGLE POINT ENERGY      -538.427781091712
FINAL SINGLE POINT ENERGY      -538.428005096858
FINAL SINGLE POINT ENERGY      -538.428026736162
FINAL SINGLE POINT ENERGY      -538.428026233153
                    ***********************HURRAY********************

CARTESIAN COORDINATES (ANGSTROEM)
---------------------------------
  C    -21.060667   26.298612   46.371070
  C    -20.345887   27.583820   45.935799
  C    -20.066942   28.273885   47.299242
  C    -19.784292   27.075043   48.238058
  O    -20.337250   25.878315   47.552136
  H    -20.961636   25.489186   45.645259
  H    -19.408488   27.317039   45.435244
  H    -20.955471   28.185110   45.257973
  H    -19.219411   28.964905   47.254664
  H    -20.941887   28.845229   47.626512
  H    -20.253407   27.169995   49.222201
  H    -18.713821   26.893629   48.372359
  C    -24.378585   27.551459   47.544024
  H    -24.715379   28.086500   48.445677
  C    -23.082000   26.791418   47.824302
  C    -23.606027   25.536965   48.552521
  C    -24.956385   25.258143   47.852789
  O    -25.332330   26.511914   47.161015
  H    -24.293188   28.246755   46.707509
  O    -22.492440   26.428524   46.539480
  H    -22.387703   27.366436   48.441243
  H    -22.894655   24.712146   48.471817
  H    -23.752245   25.766403   49.615591
  H    -25.748898   24.986522   48.559034
  H    -24.874006   24.484047   47.085480

 Multiplicity           Mult            ....    1
 Number of Electrons    NEL             ....   86
 Basis Dimension        Dim             ....  127

ORBITAL ENERGIES
----------------

  NO   OCC          E(Eh)            E(eV)
   0   2.0000     -19.150852      -521.1212
   1   2.0000     -19.138012      -520.7718
   2   2.0000     -19.123003      -520.3634
   3   2.0000     -10.280499      -279.7466
   4   2.0000     -10.239695      -278.6363
   5   2.0000     -10.236242      -278.5423
   6   2.0000     -10.219365      -278.0831
   7   2.0000     -10.214611      -277.9537
   8   2.0000     -10.196847      -277.4703
   9   2.0000     -10.189225      -277.2629
  10   2.0000     -10.178420      -276.9689
  11   2.0000      -1.055639       -28.7254
  12   2.0000      -1.012094       -27.5405
  13   2.0000      -0.988987       -26.9117
  14   2.0000      -0.793483       -21.5918
  15   2.0000      -0.781235       -21.2585
  16   2.0000      -0.740224       -20.1425
  17   2.0000      -0.721928       -19.6447
  18   2.0000      -0.617825       -16.8119
  19   2.0000      -0.606685       -16.5087
  20   2.0000      -0.593680       -16.1548
  21   2.0000      -0.565382       -15.3848
  22   2.0000      -0.526865       -14.3367
  23   2.0000      -0.503053       -13.6888
  24   2.0000      -0.485750       -13.2179
  25   2.0000      -0.480252       -13.0683
  26   2.0000      -0.452030       -12.3004
  27   2.0000      -0.444796       -12.1035
  28   2.0000      -0.424726       -11.5574
  29   2.0000      -0.415587       -11.3087
  30   2.0000      -0.411393       -11.1946
  31   2.0000      -0.385660       -10.4944
  32   2.0000      -0.373224       -10.1560
  33   2.0000      -0.365952        -9.9581
  34   2.0000      -0.363607        -9.8943
  35   2.0000      -0.359029        -9.7697
  36   2.0000      -0.344279        -9.3683
  37   2.0000      -0.326029        -8.8717
  38   2.0000      -0.311669        -8.4810
  39   2.0000      -0.293880        -7.9969
  40   2.0000      -0.265546        -7.2259
  41   2.0000      -0.251647        -6.8477
  42   2.0000      -0.227320        -6.1857
  43   0.0000       0.065558         1.7839
  44   0.0000       0.093286         2.5384
  45   0.0000       0.096429         2.6240
  46   0.0000       0.107574         2.9272
  47   0.0000       0.119572         3.2537

MULLIKEN ATOMIC CHARGES
-----------------------
   0 C :    0.297525
   1 C :   -0.259189
   2 C :   -0.315385
   3 C :   -0.019542
   4 O :   -0.510692
   5 H :    0.163785
   6 H :    0.148862
   7 H :    0.158184
   8 H :    0.149626
   9 H :    0.149475
  10 H :    0.144612
  11 H :    0.152190
  12 C :    0.009077
  13 H :    0.118880
  14 C :    0.065389
  15 C :   -0.291968
  16 C :    0.002961
  17 O :   -0.519395
  18 H :    0.159886
  19 O :   -0.525508
  20 H :    0.128210
  21 H :    0.172635
  22 H :    0.134657
  23 H :    0.131493
  24 H :    0.154233
Sum of atomic charges:   -0.0000000

LOEWDIN ATOMIC CHARGES
----------------------
   0 C :    0.180293
   1 C :   -0.224883
   2 C :   -0.223616
   3 C :   -0.036417
   4 O :   -0.322041
   5 H :    0.110721
   6 H :    0.116978
   7 H :    0.124043
   8 H :    0.118234
   9 H :    0.109423
  10 H :    0.100325
  11 H :    0.107425
  12 C :   -0.036403
  13 H :    0.088535
  14 C :    0.039547
  15 C :   -0.234004
  16 C :   -0.028084
  17 O :   -0.329563
  18 H :    0.118609
  19 O :   -0.323918
  20 H :    0.098430
  21 H :    0.131509
  22 H :    0.109310
  23 H :    0.096803
  24 H :    0.108744

  Mayer bond orders larger than 0.100000
B(  0-C ,  1-C ) :   0.9187 B(  0-C ,  4-O ) :   0.8984 B(  0-C ,  5-H ) :   0.9347
B(  0-C , 19-O ) :   0.8796 B(  1-C ,  2-C ) :   0.9528 B(  1-C ,  6-H ) :   0.9346
B(  1-C ,  7-H ) :   0.9367 B(  2-C ,  3-C ) :   0.9490 B(  2-C ,  8-H ) :   0.9443
B(  2-C ,  9-H ) :   0.9426 B(  3-C ,  4-O ) :   0.8384 B(  3-C , 10-H ) :   0.9300
B(  3-C , 11-H ) :   0.9383 B( 12-C , 13-H ) :   0.9145 B( 12-C , 14-C ) :   0.9350
B( 12-C , 17-O ) :   0.8762 B( 12-C , 18-H ) :   0.9316 B( 14-C , 15-C ) :   0.9384
B( 14-C , 19-O ) :   0.8180 B( 14-C , 20-H ) :   0.9110 B( 15-C , 16-C ) :   0.9475
B( 15-C , 21-H ) :   0.9355 B( 15-C , 22-H ) :   0.9372 B( 16-C , 17-O ) :   0.8540
B( 16-C , 23-H ) :   0.9334 B( 16-C , 24-H ) :   0.9364

FINAL SINGLE POINT ENERGY      -538.428025550934

DIPOLE MOMENT
-------------
                                X             Y             Z
Electronic contribution:     -2.05413      -2.47736      -2.30359
Nuclear contribution   :      3.17428       3.23714       3.00077
                        -----------------------------------------
Total Dipole Moment    :      1.12016       0.75979       0.69718
                        -----------------------------------------
Magnitude (a.u.)       :      1.52253
Magnitude (Debye)      :      3.86996

Rotational constants in cm-1:     0.080062     0.022109     0.020937
Rotational constants in MHz :  2400.184737   662.799472   627.663899

                             ****ORCA TERMINATED NORMALLY****
TOTAL RUN TIME: 0 days 0 hours 7 minutes 27 seconds 535 msec
