                         Program Version 4.2.1 -  RELEASE  -
|  1> # Test redundant internal optimization
|  2> #
|  3> ! RKS B3LYP  Opt TightSCF SmallPrint
|  4>
|  5> %basis
|  6>         Basis "6-31G"
|  7> end
|  8>
|  9> %geom
| 10> Constraints
| 11> { D 4  0  19  14  165.0   C } # D for Dihedral angle
| 12> { D 0  19  14  12  90.0   C } # D for Dihedral angle
| 13> { D 0  4  3  2   C } # D for Dihedral angle
| 14> { D 4  3  2  1   C } # D for Dihedral angle
| 15> { D 3  2  1  0   C } # D for Dihedral angle
| 16> { D 2  1  0  4   C } # D for Dihedral angle
| 17> { D 1  0  4  3   C } # D for Dihedral angle
| 18> { D 14  15  16  17   C } # D for Dihedral angle
| 19> { D 15  16  17  12   C } # D for Dihedral angle
| 20> { D 16  17  12  14   C } # D for Dihedral angle
| 21> { D 17  12  14  15   C } # D for Dihedral angle
| 22> { D 12  14  15  16   C } # D for Dihedral angle
| 23> end
| 24> end
| 25>
| 26>
| 27> #%pal
| 28> #nprocs 8
| 29> #end
| 30>
| 31> * xyz 0 1
| 32> C  -21.048   26.222   46.251
| 33> C  -20.361   27.558   45.944
| 34> C  -20.329   28.222   47.341
| 35> C  -20.110   27.022   48.296
| 36> O  -20.473   25.807   47.535
| 37> H  -20.833   25.428   45.533
| 38> H  -19.344   27.382   45.576
| 39> H  -20.898   28.157   45.201
| 40> H  -19.543   28.978   47.434
| 41> H  -21.289   28.710   47.548
| 42> H  -20.733   27.082   49.195
| 43> H  -19.064   26.913   48.597
| 44> C  -23.494   26.127   44.172
| 45> H  -23.687   26.656   43.225
| 46> C  -23.077   27.101   45.280
| 47> C  -24.440   27.692   45.709
| 48> C  -25.409   26.493   45.552
| 49> O  -24.728   25.514   44.675
| 50> H  -22.786   25.317   43.991
| 51> O  -22.472   26.381   46.366
| 52> H  -22.372   27.866   44.937
| 53> H  -24.430   28.089   46.728
| 54> H  -24.726   28.509   45.034
| 55> H  -26.363   26.779   45.097
| 56> H  -25.608   25.989   46.503
| 57> *
| 58>
| 59>                          ****END OF INPUT****
 Total Charge           Charge          ....    0
 Multiplicity           Mult            ....    1
 Number of Electrons    NEL             ....   86
FINAL SINGLE POINT ENERGY      -538.416815122882
FINAL SINGLE POINT ENERGY      -538.424786773983
FINAL SINGLE POINT ENERGY      -538.426354970302
FINAL SINGLE POINT ENERGY      -538.426699534363
FINAL SINGLE POINT ENERGY      -538.426723670314
FINAL SINGLE POINT ENERGY      -538.426735432988
                    ***********************HURRAY********************

CARTESIAN COORDINATES (ANGSTROEM)
---------------------------------
  C    -20.999209   26.240732   46.224250
  C    -20.187345   27.507966   45.955538
  C    -20.268056   28.240604   47.320843
  C    -20.250828   27.072970   48.329563
  O    -20.615689   25.862439   47.553375
  H    -20.768677   25.396038   45.569085
  H    -19.154557   27.212249   45.737491
  H    -20.539352   28.115984   45.119211
  H    -19.436373   28.935491   47.470903
  H    -21.204223   28.802883   47.391610
  H    -20.969575   27.195814   49.143643
  H    -19.256855   26.888675   48.747753
  C    -23.583485   26.196220   44.082899
  H    -23.877173   26.755407   43.181032
  C    -23.120131   27.154165   45.180890
  C    -24.463761   27.649831   45.750971
  C    -25.378286   26.407172   45.639986
  O    -24.727134   25.498356   44.668336
  H    -22.843292   25.439494   43.814861
  O    -22.445506   26.452780   46.264083
  H    -22.508359   27.975998   44.792428
  H    -24.342117   27.998746   46.778518
  H    -24.840944   28.476887   45.138324
  H    -26.383185   26.654050   45.280028
  H    -25.452890   25.863046   46.584378

 Multiplicity           Mult            ....    1
 Number of Electrons    NEL             ....   86
 Basis Dimension        Dim             ....  127

ORBITAL ENERGIES
----------------

  NO   OCC          E(Eh)            E(eV)
   0   2.0000     -19.140133      -520.8295
   1   2.0000     -19.138037      -520.7725
   2   2.0000     -19.126282      -520.4526
   3   2.0000     -10.281146      -279.7642
   4   2.0000     -10.241626      -278.6888
   5   2.0000     -10.226489      -278.2769
   6   2.0000     -10.221944      -278.1532
   7   2.0000     -10.217292      -278.0267
   8   2.0000     -10.192954      -277.3644
   9   2.0000     -10.191563      -277.3265
  10   2.0000     -10.185184      -277.1529
  11   2.0000      -1.053377       -28.6639
  12   2.0000      -1.013445       -27.5772
  13   2.0000      -0.987399       -26.8685
  14   2.0000      -0.790692       -21.5158
  15   2.0000      -0.782372       -21.2894
  16   2.0000      -0.737932       -20.0802
  17   2.0000      -0.726153       -19.7596
  18   2.0000      -0.618875       -16.8404
  19   2.0000      -0.603000       -16.4085
  20   2.0000      -0.593785       -16.1577
  21   2.0000      -0.566235       -15.4080
  22   2.0000      -0.528332       -14.3766
  23   2.0000      -0.501407       -13.6440
  24   2.0000      -0.491632       -13.3780
  25   2.0000      -0.479987       -13.0611
  26   2.0000      -0.451509       -12.2862
  27   2.0000      -0.447984       -12.1903
  28   2.0000      -0.430825       -11.7233
  29   2.0000      -0.421310       -11.4644
  30   2.0000      -0.403654       -10.9840
  31   2.0000      -0.381612       -10.3842
  32   2.0000      -0.374411       -10.1883
  33   2.0000      -0.365682        -9.9507
  34   2.0000      -0.364431        -9.9167
  35   2.0000      -0.355858        -9.6834
  36   2.0000      -0.353256        -9.6126
  37   2.0000      -0.313847        -8.5402
  38   2.0000      -0.303941        -8.2707
  39   2.0000      -0.297372        -8.0919
  40   2.0000      -0.258873        -7.0443
  41   2.0000      -0.253571        -6.9000
  42   2.0000      -0.231863        -6.3093
  43   0.0000       0.070170         1.9094
  44   0.0000       0.098465         2.6794
  45   0.0000       0.099646         2.7115
  46   0.0000       0.102758         2.7962
  47   0.0000       0.115658         3.1472

MULLIKEN ATOMIC CHARGES
-----------------------
   0 C :    0.315162
   1 C :   -0.295812
   2 C :   -0.297006
   3 C :    0.000410
   4 O :   -0.497114
   5 H :    0.146645
   6 H :    0.153083
   7 H :    0.142692
   8 H :    0.143773
   9 H :    0.154177
  10 H :    0.153271
  11 H :    0.143220
  12 C :    0.011316
  13 H :    0.119239
  14 C :    0.049120
  15 C :   -0.284904
  16 C :    0.002407
  17 O :   -0.516859
  18 H :    0.152844
  19 O :   -0.508811
  20 H :    0.120884
  21 H :    0.160459
  22 H :    0.137849
  23 H :    0.133239
  24 H :    0.160715
Sum of atomic charges:   -0.0000000

LOEWDIN ATOMIC CHARGES
----------------------
   0 C :    0.184754
   1 C :   -0.234816
   2 C :   -0.216797
   3 C :   -0.025643
   4 O :   -0.301218
   5 H :    0.098700
   6 H :    0.119325
   7 H :    0.111822
   8 H :    0.115018
   9 H :    0.113645
  10 H :    0.108932
  11 H :    0.103201
  12 C :   -0.044859
  13 H :    0.089124
  14 C :    0.031746
  15 C :   -0.223494
  16 C :   -0.026929
  17 O :   -0.328027
  18 H :    0.113805
  19 O :   -0.326966
  20 H :    0.092555
  21 H :    0.126699
  22 H :    0.110158
  23 H :    0.097200
  24 H :    0.112064

  Mayer bond orders larger than 0.100000
B(  0-C ,  1-C ) :   0.9282 B(  0-C ,  4-O ) :   0.9352 B(  0-C ,  5-H ) :   0.9219
B(  0-C , 19-O ) :   0.8385 B(  1-C ,  2-C ) :   0.9497 B(  1-C ,  6-H ) :   0.9334
B(  1-C ,  7-H ) :   0.9268 B(  2-C ,  3-C ) :   0.9549 B(  2-C ,  8-H ) :   0.9451
B(  2-C ,  9-H ) :   0.9459 B(  3-C ,  4-O ) :   0.8374 B(  3-C , 10-H ) :   0.9344
B(  3-C , 11-H ) :   0.9396 B( 12-C , 13-H ) :   0.9101 B( 12-C , 14-C ) :   0.9092
B( 12-C , 17-O ) :   0.8798 B( 12-C , 18-H ) :   0.9345 B( 14-C , 15-C ) :   0.9560
B( 14-C , 19-O ) :   0.8428 B( 14-C , 20-H ) :   0.9084 B( 15-C , 16-C ) :   0.9477
B( 15-C , 21-H ) :   0.9371 B( 15-C , 22-H ) :   0.9422 B( 16-C , 17-O ) :   0.8538
B( 16-C , 23-H ) :   0.9330 B( 16-C , 24-H ) :   0.9354

FINAL SINGLE POINT ENERGY      -538.426735933830

DIPOLE MOMENT
-------------
                                X             Y             Z
Electronic contribution:     -0.89108      -5.14237       0.15455
Nuclear contribution   :      1.55354       6.89961      -0.48549
                        -----------------------------------------
Total Dipole Moment    :      0.66246       1.75725      -0.33094
                        -----------------------------------------
Magnitude (a.u.)       :      1.90691
Magnitude (Debye)      :      4.84697

Rotational constants in cm-1:     0.083336     0.019937     0.019765
Rotational constants in MHz :  2498.364978   597.689730   592.530297

                             ****ORCA TERMINATED NORMALLY****
TOTAL RUN TIME: 0 days 0 hours 7 minutes 48 seconds 723 msec
