                         Program Version 4.2.1 -  RELEASE  -
|  1> # Test redundant internal optimization
|  2> #
|  3> ! RKS B3LYP  Opt TightSCF SmallPrint
|  4>
|  5> %basis
|  6>         Basis "6-31G"
|  7> end
|  8>
|  9> %geom
| 10> Constraints
| 11> { D 4  0  19  14  240.0   C } # D for Dihedral angle
| 12> { D 0  19  14  12  225.0   C } # D for Dihedral angle
| 13> { D 0  4  3  2   C } # D for Dihedral angle
| 14> { D 4  3  2  1   C } # D for Dihedral angle
| 15> { D 3  2  1  0   C } # D for Dihedral angle
| 16> { D 2  1  0  4   C } # D for Dihedral angle
| 17> { D 1  0  4  3   C } # D for Dihedral angle
| 18> { D 14  15  16  17   C } # D for Dihedral angle
| 19> { D 15  16  17  12   C } # D for Dihedral angle
| 20> { D 16  17  12  14   C } # D for Dihedral angle
| 21> { D 17  12  14  15   C } # D for Dihedral angle
| 22> { D 12  14  15  16   C } # D for Dihedral angle
| 23> end
| 24> end
| 25>
| 26>
| 27> #%pal
| 28> #nprocs 8
| 29> #end
| 30>
| 31> * xyz 0 1
| 32> C  -21.048   26.222   46.251
| 33> C  -20.361   27.558   45.944
| 34> C  -20.329   28.222   47.341
| 35> C  -20.110   27.022   48.296
| 36> O  -20.473   25.807   47.535
| 37> H  -20.833   25.428   45.533
| 38> H  -19.344   27.382   45.576
| 39> H  -20.898   28.157   45.201
| 40> H  -19.543   28.978   47.434
| 41> H  -21.289   28.710   47.548
| 42> H  -20.733   27.082   49.195
| 43> H  -19.064   26.913   48.597
| 44> C  -24.355   26.334   44.824
| 45> H  -25.120   25.670   44.391
| 46> C  -23.235   25.530   45.496
| 47> C  -22.388   25.093   44.278
| 48> C  -22.502   26.304   43.317
| 49> O  -23.673   27.088   43.767
| 50> H  -24.841   27.063   45.474
| 51> O  -22.472   26.381   46.366
| 52> H  -23.607   24.682   46.081
| 53> H  -21.351   24.866   44.541
| 54> H  -22.821   24.195   43.820
| 55> H  -22.651   26.001   42.275
| 56> H  -21.631   26.965   43.373
| 57> *
| 58>
| 59>                          ****END OF INPUT****
 Total Charge           Charge          ....    0
 Multiplicity           Mult            ....    1
 Number of Electrons    NEL             ....   86
FINAL SINGLE POINT ENERGY      -538.402177596026
FINAL SINGLE POINT ENERGY      -538.425910358313
FINAL SINGLE POINT ENERGY      -538.427592719400
FINAL SINGLE POINT ENERGY      -538.427865156895
FINAL SINGLE POINT ENERGY      -538.427910039558
FINAL SINGLE POINT ENERGY      -538.427917748121
                    ***********************HURRAY********************

CARTESIAN COORDINATES (ANGSTROEM)
---------------------------------
  C    -20.829694   26.238741   46.241948
  C    -20.288904   27.654182   46.035140
  C    -20.442495   28.263789   47.449462
  C    -20.154067   27.062119   48.377072
  O    -20.315021   25.850434   47.535450
  H    -20.470920   25.493190   45.532323
  H    -19.232862   27.606569   45.743269
  H    -20.852368   28.194078   45.270895
  H    -19.759733   29.100232   47.624642
  H    -21.468823   28.616983   47.584780
  H    -20.844648   26.997374   49.222038
  H    -19.125084   27.050715   48.749764
  C    -24.216043   26.456995   44.892752
  H    -25.119421   25.911400   44.583461
  C    -23.151643   25.497758   45.426571
  C    -22.551043   24.946299   44.121788
  C    -22.607900   26.156018   43.157884
  O    -23.579879   27.106498   43.740588
  H    -24.472659   27.233262   45.613342
  O    -22.270686   26.305798   46.273789
  H    -23.574902   24.700440   46.048515
  H    -21.550442   24.521016   44.225801
  H    -23.204840   24.139287   43.770938
  H    -22.938690   25.872142   42.152690
  H    -21.649233   26.677681   43.079098

 Multiplicity           Mult            ....    1
 Number of Electrons    NEL             ....   86
 Basis Dimension        Dim             ....  127

ORBITAL ENERGIES
----------------

  NO   OCC          E(Eh)            E(eV)
   0   2.0000     -19.136636      -520.7343
   1   2.0000     -19.133906      -520.6601
   2   2.0000     -19.132844      -520.6311
   3   2.0000     -10.276440      -279.6361
   4   2.0000     -10.244254      -278.7603
   5   2.0000     -10.228555      -278.3331
   6   2.0000     -10.222233      -278.1611
   7   2.0000     -10.219257      -278.0801
   8   2.0000     -10.196471      -277.4601
   9   2.0000     -10.179466      -276.9973
  10   2.0000     -10.178546      -276.9723
  11   2.0000      -1.047542       -28.5051
  12   2.0000      -1.016691       -27.6656
  13   2.0000      -0.985503       -26.8169
  14   2.0000      -0.791515       -21.5382
  15   2.0000      -0.775986       -21.1156
  16   2.0000      -0.748296       -20.3622
  17   2.0000      -0.717375       -19.5208
  18   2.0000      -0.617041       -16.7906
  19   2.0000      -0.603402       -16.4194
  20   2.0000      -0.592548       -16.1241
  21   2.0000      -0.565805       -15.3963
  22   2.0000      -0.527135       -14.3441
  23   2.0000      -0.503287       -13.6951
  24   2.0000      -0.483657       -13.1610
  25   2.0000      -0.479507       -13.0480
  26   2.0000      -0.455744       -12.4014
  27   2.0000      -0.436751       -11.8846
  28   2.0000      -0.429165       -11.6782
  29   2.0000      -0.420341       -11.4381
  30   2.0000      -0.399146       -10.8613
  31   2.0000      -0.385910       -10.5012
  32   2.0000      -0.375929       -10.2295
  33   2.0000      -0.370915       -10.0931
  34   2.0000      -0.361824        -9.8457
  35   2.0000      -0.350360        -9.5338
  36   2.0000      -0.342991        -9.3333
  37   2.0000      -0.314142        -8.5482
  38   2.0000      -0.306047        -8.3280
  39   2.0000      -0.297808        -8.1038
  40   2.0000      -0.261184        -7.1072
  41   2.0000      -0.244815        -6.6618
  42   2.0000      -0.237795        -6.4707
  43   0.0000       0.073783         2.0077
  44   0.0000       0.091821         2.4986
  45   0.0000       0.098546         2.6816
  46   0.0000       0.111559         3.0357
  47   0.0000       0.112988         3.0746

MULLIKEN ATOMIC CHARGES
-----------------------
   0 C :    0.287435
   1 C :   -0.256523
   2 C :   -0.297856
   3 C :   -0.001302
   4 O :   -0.506684
   5 H :    0.136295
   6 H :    0.136557
   7 H :    0.162565
   8 H :    0.138076
   9 H :    0.163076
  10 H :    0.149006
  11 H :    0.138246
  12 C :    0.000397
  13 H :    0.123452
  14 C :    0.100504
  15 C :   -0.335161
  16 C :    0.000886
  17 O :   -0.521310
  18 H :    0.171110
  19 O :   -0.527664
  20 H :    0.143175
  21 H :    0.156424
  22 H :    0.154385
  23 H :    0.140596
  24 H :    0.144315
Sum of atomic charges:   -0.0000000

LOEWDIN ATOMIC CHARGES
----------------------
   0 C :    0.176052
   1 C :   -0.222530
   2 C :   -0.215667
   3 C :   -0.027184
   4 O :   -0.320752
   5 H :    0.095961
   6 H :    0.109228
   7 H :    0.124671
   8 H :    0.112487
   9 H :    0.119674
  10 H :    0.106129
  11 H :    0.100330
  12 C :   -0.036734
  13 H :    0.090260
  14 C :    0.048800
  15 C :   -0.241217
  16 C :   -0.031268
  17 O :   -0.331297
  18 H :    0.124453
  19 O :   -0.329060
  20 H :    0.104271
  21 H :    0.119801
  22 H :    0.121357
  23 H :    0.100940
  24 H :    0.101293

  Mayer bond orders larger than 0.100000
B(  0-C ,  1-C ) :   0.9408 B(  0-C ,  4-O ) :   0.9231 B(  0-C ,  5-H ) :   0.9123
B(  0-C , 19-O ) :   0.8480 B(  1-C ,  2-C ) :   0.9575 B(  1-C ,  6-H ) :   0.9381
B(  1-C ,  7-H ) :   0.9324 B(  2-C ,  3-C ) :   0.9538 B(  2-C ,  8-H ) :   0.9456
B(  2-C ,  9-H ) :   0.9435 B(  3-C ,  4-O ) :   0.8396 B(  3-C , 10-H ) :   0.9352
B(  3-C , 11-H ) :   0.9401 B( 12-C , 13-H ) :   0.9140 B( 12-C , 14-C ) :   0.9219
B( 12-C , 17-O ) :   0.8626 B( 12-C , 18-H ) :   0.9304 B( 14-C , 15-C ) :   0.9415
B( 14-C , 19-O ) :   0.8424 B( 14-C , 20-H ) :   0.9251 B( 15-C , 16-C ) :   0.9382
B( 15-C , 21-H ) :   0.9274 B( 15-C , 22-H ) :   0.9343 B( 16-C , 17-O ) :   0.8641
B( 16-C , 23-H ) :   0.9328 B( 16-C , 24-H ) :   0.9346

FINAL SINGLE POINT ENERGY      -538.427918636664

DIPOLE MOMENT
-------------
                                X             Y             Z
Electronic contribution:     -1.42748      -1.28252       0.89518
Nuclear contribution   :      1.64976       0.98856      -1.20676
                        -----------------------------------------
Total Dipole Moment    :      0.22228      -0.29396      -0.31157
                        -----------------------------------------
Magnitude (a.u.)       :      0.48259
Magnitude (Debye)      :      1.22666

Rotational constants in cm-1:     0.078675     0.021632     0.020847
Rotational constants in MHz :  2358.607741   648.509989   624.986545

                             ****ORCA TERMINATED NORMALLY****
TOTAL RUN TIME: 0 days 0 hours 7 minutes 17 seconds 124 msec
