                         Program Version 4.2.0 -  RELEASE  -
|  1> # Test redundant internal optimization
|  2> #
|  3> ! RKS B3LYP  Opt TightSCF SmallPrint
|  4>
|  5> %basis
|  6>         Basis "6-31G"
|  7> end
|  8>
|  9> %geom
| 10> Constraints
| 11> { D 4  0  15  12  225.0   C } # D for Dihedral angle
| 12> { D 0  15  12  16  75.0   C } # D for Dihedral angle
| 13> { D 0  4  3  2   C } # D for Dihedral angle
| 14> { D 4  3  2  1   C } # D for Dihedral angle
| 15> { D 3  2  1  0   C } # D for Dihedral angle
| 16> { D 2  1  0  4   C } # D for Dihedral angle
| 17> { D 1  0  4  3   C } # D for Dihedral angle
| 18> { D 16  20  19  18   C } # D for Dihedral angle
| 19> { D 20  19  18  17   C } # D for Dihedral angle
| 20> { D 19  18  17  16   C } # D for Dihedral angle
| 21> { D 18  17  16  20   C } # D for Dihedral angle
| 22> { D 17  16  20  19   C } # D for Dihedral angle
| 23> { D 15  12  16  20   C } # D for Dihedral angle
| 24> end
| 25> end
| 26>
| 27>
| 28> #%pal
| 29> #nprocs 8
| 30> #end
| 31>
| 32> * xyz 0 1
| 33> C  -21.048   26.222   46.251
| 34> C  -20.361   27.558   45.944
| 35> C  -20.329   28.222   47.341
| 36> C  -20.110   27.022   48.296
| 37> O  -20.473   25.807   47.535
| 38> H  -20.833   25.428   45.533
| 39> H  -19.344   27.382   45.576
| 40> H  -20.898   28.157   45.201
| 41> H  -19.543   28.978   47.434
| 42> H  -21.289   28.710   47.548
| 43> H  -20.733   27.082   49.195
| 44> H  -19.064   26.913   48.597
| 45> C  -23.415   25.773   45.218
| 46> H  -24.435   26.176   45.246
| 47> H  -22.972   26.029   44.247
| 48> O  -22.586   26.394   46.375
| 49> C  -23.501   24.224   45.304
| 50> C  -24.263   23.777   46.557
| 51> C  -25.732   23.988   46.122
| 52> C  -25.708   23.628   44.615
| 53> O  -24.293   23.691   44.191
| 54> H  -22.497   23.805   45.212
| 55> O  -23.985   22.276   46.843
| 56> H  -23.997   24.352   47.451
| 57> H  -26.435   23.369   46.688
| 58> H  -26.020   25.036   46.265
| 59> H  -26.296   24.324   44.008
| 60> H  -26.057   22.610   44.424
| 61> H  -24.244   21.679   45.960
| 62> *
| 63>
| 64>                          ****END OF INPUT****
 Total Charge           Charge          ....    0
 Multiplicity           Mult            ....    1
 Number of Electrons    NEL             ....  102
FINAL SINGLE POINT ENERGY      -652.836809273213
FINAL SINGLE POINT ENERGY      -652.858882931848
FINAL SINGLE POINT ENERGY      -652.862072496500
FINAL SINGLE POINT ENERGY      -652.862666952284
FINAL SINGLE POINT ENERGY      -652.862754615679
FINAL SINGLE POINT ENERGY      -652.862764401669
FINAL SINGLE POINT ENERGY      -652.862766283145
                    ***********************HURRAY********************

CARTESIAN COORDINATES (ANGSTROEM)
---------------------------------
  C    -21.080657   26.157157   46.194970
  C    -20.390274   27.491505   45.920086
  C    -20.435049   28.167069   47.311021
  C    -20.259137   26.977683   48.278884
  O    -20.581003   25.762841   47.483795
  H    -20.843818   25.354795   45.491339
  H    -19.355256   27.309886   45.606283
  H    -20.895976   28.071089   45.143496
  H    -19.657341   28.926376   47.435974
  H    -21.410427   28.640816   47.456611
  H    -20.930799   27.018326   49.139706
  H    -19.228749   26.858710   48.626473
  C    -23.326425   25.789011   45.203056
  H    -24.297979   26.282158   45.284502
  H    -22.906589   26.032239   44.216943
  O    -22.522704   26.358410   46.275793
  C    -23.470840   24.267207   45.318148
  C    -24.205937   23.780090   46.575429
  C    -25.685379   24.013870   46.181469
  C    -25.703058   23.706889   44.663295
  O    -24.291753   23.777075   44.203367
  H    -22.495990   23.778657   45.231798
  O    -23.933601   22.371704   46.819432
  H    -23.896196   24.305154   47.477637
  H    -26.344192   23.358167   46.755420
  H    -25.975020   25.050554   46.382879
  H    -26.299087   24.422254   44.088554
  H    -26.061870   22.696994   44.441907
  H    -23.975893   21.885313   45.968732

 Multiplicity           Mult            ....    1
 Number of Electrons    NEL             ....  102
 Basis Dimension        Dim             ....  149

ORBITAL ENERGIES
----------------

  NO   OCC          E(Eh)            E(eV)
   0   2.0000     -19.145525      -520.9762
   1   2.0000     -19.144384      -520.9452
   2   2.0000     -19.139821      -520.8210
   3   2.0000     -19.132729      -520.6280
   4   2.0000     -10.280641      -279.7505
   5   2.0000     -10.233687      -278.4728
   6   2.0000     -10.233411      -278.4653
   7   2.0000     -10.232611      -278.4435
   8   2.0000     -10.231781      -278.4209
   9   2.0000     -10.224333      -278.2182
  10   2.0000     -10.186048      -277.1765
  11   2.0000     -10.185749      -277.1683
  12   2.0000     -10.185365      -277.1579
  13   2.0000      -1.053209       -28.6593
  14   2.0000      -1.035115       -28.1669
  15   2.0000      -1.002597       -27.2821
  16   2.0000      -0.995719       -27.0949
  17   2.0000      -0.787620       -21.4322
  18   2.0000      -0.777340       -21.1525
  19   2.0000      -0.765539       -20.8314
  20   2.0000      -0.732733       -19.9387
  21   2.0000      -0.675094       -18.3702
  22   2.0000      -0.604055       -16.4372
  23   2.0000      -0.601468       -16.3668
  24   2.0000      -0.598208       -16.2781
  25   2.0000      -0.573795       -15.6137
  26   2.0000      -0.520883       -14.1739
  27   2.0000      -0.519881       -14.1467
  28   2.0000      -0.493639       -13.4326
  29   2.0000      -0.489024       -13.3070
  30   2.0000      -0.466874       -12.7043
  31   2.0000      -0.459989       -12.5169
  32   2.0000      -0.453485       -12.3400
  33   2.0000      -0.435871       -11.8606
  34   2.0000      -0.424566       -11.5530
  35   2.0000      -0.412201       -11.2166
  36   2.0000      -0.400446       -10.8967
  37   2.0000      -0.390736       -10.6325
  38   2.0000      -0.373736       -10.1699
  39   2.0000      -0.367151        -9.9907
  40   2.0000      -0.360239        -9.8026
  41   2.0000      -0.356608        -9.7038
  42   2.0000      -0.353014        -9.6060
  43   2.0000      -0.331804        -9.0288
  44   2.0000      -0.315192        -8.5768
  45   2.0000      -0.312799        -8.5117
  46   2.0000      -0.302432        -8.2296
  47   2.0000      -0.274166        -7.4604
  48   2.0000      -0.263816        -7.1788
  49   2.0000      -0.255430        -6.9506
  50   2.0000      -0.238116        -6.4795
  51   0.0000       0.064888         1.7657
  52   0.0000       0.075444         2.0529
  53   0.0000       0.094160         2.5622
  54   0.0000       0.098385         2.6772
  55   0.0000       0.103825         2.8252

MULLIKEN ATOMIC CHARGES
-----------------------
   0 C :    0.283183
   1 C :   -0.254219
   2 C :   -0.300792
   3 C :   -0.001578
   4 O :   -0.501596
   5 H :    0.143741
   6 H :    0.143482
   7 H :    0.145608
   8 H :    0.141863
   9 H :    0.162885
  10 H :    0.153147
  11 H :    0.142316
  12 C :   -0.029349
  13 H :    0.151662
  14 H :    0.141896
  15 O :   -0.512960
  16 C :    0.050050
  17 C :    0.094328
  18 C :   -0.298453
  19 C :   -0.031333
  20 O :   -0.528761
  21 H :    0.163855
  22 O :   -0.601825
  23 H :    0.180736
  24 H :    0.163971
  25 H :    0.144308
  26 H :    0.147599
  27 H :    0.145160
  28 H :    0.361073
Sum of atomic charges:   -0.0000000

LOEWDIN ATOMIC CHARGES
----------------------
   0 C :    0.174922
   1 C :   -0.222718
   2 C :   -0.216855
   3 C :   -0.025398
   4 O :   -0.309877
   5 H :    0.099130
   6 H :    0.112672
   7 H :    0.117308
   8 H :    0.114275
   9 H :    0.119584
  10 H :    0.108787
  11 H :    0.102769
  12 C :   -0.042963
  13 H :    0.112727
  14 H :    0.100665
  15 O :   -0.333984
  16 C :    0.003063
  17 C :    0.039380
  18 C :   -0.241026
  19 C :   -0.038397
  20 O :   -0.332685
  21 H :    0.113694
  22 O :   -0.413548
  23 H :    0.130113
  24 H :    0.127591
  25 H :    0.113627
  26 H :    0.104239
  27 H :    0.102503
  28 H :    0.280403

  Mayer bond orders larger than 0.100000
B(  0-C ,  1-C ) :   0.9383 B(  0-C ,  4-O ) :   0.9360 B(  0-C ,  5-H ) :   0.9166
B(  0-C , 15-O ) :   0.8264 B(  1-C ,  2-C ) :   0.9555 B(  1-C ,  6-H ) :   0.9355
B(  1-C ,  7-H ) :   0.9385 B(  2-C ,  3-C ) :   0.9549 B(  2-C ,  8-H ) :   0.9451
B(  2-C ,  9-H ) :   0.9435 B(  3-C ,  4-O ) :   0.8357 B(  3-C , 10-H ) :   0.9346
B(  3-C , 11-H ) :   0.9397 B( 12-C , 13-H ) :   0.9402 B( 12-C , 14-H ) :   0.9208
B( 12-C , 15-O ) :   0.8507 B( 12-C , 16-C ) :   0.8767 B( 16-C , 17-C ) :   0.9120
B( 16-C , 20-O ) :   0.8361 B( 16-C , 21-H ) :   0.9229 B( 17-C , 18-C ) :   0.9113
B( 17-C , 22-O ) :   0.8897 B( 17-C , 23-H ) :   0.9226 B( 18-C , 19-C ) :   0.9419
B( 18-C , 24-H ) :   0.9374 B( 18-C , 25-H ) :   0.9351 B( 19-C , 20-O ) :   0.8412
B( 19-C , 26-H ) :   0.9355 B( 19-C , 27-H ) :   0.9387 B( 22-O , 28-H ) :   0.7967

FINAL SINGLE POINT ENERGY      -652.862766343613

DIPOLE MOMENT
-------------
                                X             Y             Z
Electronic contribution:      0.05876      -4.57233      -0.31066
Nuclear contribution   :     -0.26239       5.61253      -0.21731
                        -----------------------------------------
Total Dipole Moment    :     -0.20363       1.04019      -0.52797
                        -----------------------------------------
Magnitude (a.u.)       :      1.18415
Magnitude (Debye)      :      3.00988

Rotational constants in cm-1:     0.059886     0.012688     0.011682
Rotational constants in MHz :  1795.322771   380.363787   350.231629

                             ****ORCA TERMINATED NORMALLY****
TOTAL RUN TIME: 0 days 1 hours 8 minutes 37 seconds 73 msec
