                         Program Version 4.2.0 -  RELEASE  -
|  1> # Test redundant internal optimization
|  2> #
|  3> ! RKS B3LYP  Opt TightSCF SmallPrint
|  4>
|  5> %basis
|  6>         Basis "6-31G"
|  7> end
|  8>
|  9> %geom
| 10> Constraints
| 11> { D 4  0  15  12  225.0   C } # D for Dihedral angle
| 12> { D 0  15  12  16  270.0   C } # D for Dihedral angle
| 13> { D 0  4  3  2   C } # D for Dihedral angle
| 14> { D 4  3  2  1   C } # D for Dihedral angle
| 15> { D 3  2  1  0   C } # D for Dihedral angle
| 16> { D 2  1  0  4   C } # D for Dihedral angle
| 17> { D 1  0  4  3   C } # D for Dihedral angle
| 18> { D 16  20  19  18   C } # D for Dihedral angle
| 19> { D 20  19  18  17   C } # D for Dihedral angle
| 20> { D 19  18  17  16   C } # D for Dihedral angle
| 21> { D 18  17  16  20   C } # D for Dihedral angle
| 22> { D 17  16  20  19   C } # D for Dihedral angle
| 23> { D 15  12  16  20   C } # D for Dihedral angle
| 24> end
| 25> end
| 26>
| 27>
| 28> #%pal
| 29> #nprocs 8
| 30> #end
| 31>
| 32> * xyz 0 1
| 33> C  -21.048   26.222   46.251
| 34> C  -20.361   27.558   45.944
| 35> C  -20.329   28.222   47.341
| 36> C  -20.110   27.022   48.296
| 37> O  -20.473   25.807   47.535
| 38> H  -20.833   25.428   45.533
| 39> H  -19.344   27.382   45.576
| 40> H  -20.898   28.157   45.201
| 41> H  -19.543   28.978   47.434
| 42> H  -21.289   28.710   47.548
| 43> H  -20.733   27.082   49.195
| 44> H  -19.064   26.913   48.597
| 45> C  -23.415   25.773   45.218
| 46> H  -22.885   24.898   44.822
| 47> H  -24.397   25.443   45.583
| 48> O  -22.586   26.394   46.375
| 49> C  -23.656   26.769   44.050
| 50> C  -22.339   27.153   43.366
| 51> C  -22.081   25.921   42.467
| 52> C  -23.507   25.496   42.034
| 53> O  -24.442   26.132   42.987
| 54> H  -24.240   27.615   44.416
| 55> O  -22.540   28.429   42.504
| 56> H  -21.525   27.341   44.074
| 57> H  -21.435   26.147   41.612
| 58> H  -21.600   25.125   43.048
| 59> H  -23.648   24.411   42.063
| 60> H  -23.766   25.860   41.037
| 61> H  -23.351   28.265   41.785
| 62> *
| 63>
| 64>                          ****END OF INPUT****
 Total Charge           Charge          ....    0
 Multiplicity           Mult            ....    1
 Number of Electrons    NEL             ....  102
FINAL SINGLE POINT ENERGY      -652.824214385662
FINAL SINGLE POINT ENERGY      -652.847637996482
FINAL SINGLE POINT ENERGY      -652.854240928819
FINAL SINGLE POINT ENERGY      -652.856383640419
FINAL SINGLE POINT ENERGY      -652.856702795707
FINAL SINGLE POINT ENERGY      -652.856752517714
                    ***********************HURRAY********************

CARTESIAN COORDINATES (ANGSTROEM)
---------------------------------
  C    -20.966901   26.211581   46.248122
  C    -20.244470   27.544147   46.038950
  C    -20.354923   28.198869   47.443451
  C    -20.245644   26.980690   48.386673
  O    -20.539057   25.792307   47.553211
  H    -20.712029   25.412315   45.543473
  H    -19.195532   27.352607   45.781624
  H    -20.687238   28.169667   45.265181
  H    -19.573086   28.941965   47.623717
  H    -21.330658   28.682498   47.545114
  H    -20.960445   27.011163   49.212930
  H    -19.236080   26.843312   48.786001
  C    -23.258171   25.894553   45.221829
  H    -22.848713   24.940912   44.853280
  H    -24.215827   25.676382   45.699702
  O    -22.406891   26.404636   46.284636
  C    -23.541119   26.813522   44.018806
  C    -22.353596   27.219601   43.130587
  C    -22.131066   25.932458   42.287094
  C    -23.572998   25.398355   42.090868
  O    -24.412911   26.050987   43.117794
  H    -24.096728   27.698195   44.342667
  O    -22.704877   28.359089   42.297492
  H    -21.468078   27.529567   43.674261
  H    -21.630432   26.166878   41.344886
  H    -21.511376   25.217227   42.839513
  H    -23.644485   24.312384   42.209595
  H    -23.988119   25.668622   41.114996
  H    -23.606549   28.228510   41.935550

 Multiplicity           Mult            ....    1
 Number of Electrons    NEL             ....  102
 Basis Dimension        Dim             ....  149

ORBITAL ENERGIES
----------------

  NO   OCC          E(Eh)            E(eV)
   0   2.0000     -19.151019      -521.1257
   1   2.0000     -19.143201      -520.9130
   2   2.0000     -19.142547      -520.8952
   3   2.0000     -19.139988      -520.8256
   4   2.0000     -10.284326      -279.8507
   5   2.0000     -10.245640      -278.7980
   6   2.0000     -10.238204      -278.5957
   7   2.0000     -10.237519      -278.5771
   8   2.0000     -10.233971      -278.4805
   9   2.0000     -10.224441      -278.2212
  10   2.0000     -10.195381      -277.4304
  11   2.0000     -10.187875      -277.2262
  12   2.0000     -10.186207      -277.1808
  13   2.0000      -1.054199       -28.6862
  14   2.0000      -1.043765       -28.4023
  15   2.0000      -1.012183       -27.5429
  16   2.0000      -0.994995       -27.0752
  17   2.0000      -0.787173       -21.4201
  18   2.0000      -0.784627       -21.3508
  19   2.0000      -0.770887       -20.9769
  20   2.0000      -0.736483       -20.0407
  21   2.0000      -0.678123       -18.4527
  22   2.0000      -0.611620       -16.6430
  23   2.0000      -0.602676       -16.3996
  24   2.0000      -0.598258       -16.2794
  25   2.0000      -0.584484       -15.9046
  26   2.0000      -0.527233       -14.3467
  27   2.0000      -0.521296       -14.1852
  28   2.0000      -0.501909       -13.6576
  29   2.0000      -0.488125       -13.2826
  30   2.0000      -0.476922       -12.9777
  31   2.0000      -0.459950       -12.5159
  32   2.0000      -0.452703       -12.3187
  33   2.0000      -0.440880       -11.9970
  34   2.0000      -0.424492       -11.5510
  35   2.0000      -0.423221       -11.5164
  36   2.0000      -0.407164       -11.0795
  37   2.0000      -0.397397       -10.8137
  38   2.0000      -0.379727       -10.3329
  39   2.0000      -0.375876       -10.2281
  40   2.0000      -0.362837        -9.8733
  41   2.0000      -0.355477        -9.6730
  42   2.0000      -0.352039        -9.5795
  43   2.0000      -0.336894        -9.1673
  44   2.0000      -0.314808        -8.5664
  45   2.0000      -0.312783        -8.5113
  46   2.0000      -0.303945        -8.2708
  47   2.0000      -0.277786        -7.5589
  48   2.0000      -0.271638        -7.3917
  49   2.0000      -0.258860        -7.0439
  50   2.0000      -0.240360        -6.5405
  51   0.0000       0.061012         1.6602
  52   0.0000       0.063650         1.7320
  53   0.0000       0.089893         2.4461
  54   0.0000       0.091639         2.4936
  55   0.0000       0.099317         2.7026

MULLIKEN ATOMIC CHARGES
-----------------------
   0 C :    0.292384
   1 C :   -0.271764
   2 C :   -0.303164
   3 C :    0.000145
   4 O :   -0.500564
   5 H :    0.135487
   6 H :    0.144304
   7 H :    0.162225
   8 H :    0.143077
   9 H :    0.165376
  10 H :    0.154829
  11 H :    0.140541
  12 C :   -0.005600
  13 H :    0.120731
  14 H :    0.172737
  15 O :   -0.518438
  16 C :    0.050026
  17 C :    0.080551
  18 C :   -0.304780
  19 C :   -0.026979
  20 O :   -0.522936
  21 H :    0.164374
  22 O :   -0.602597
  23 H :    0.153933
  24 H :    0.166004
  25 H :    0.145392
  26 H :    0.151644
  27 H :    0.146873
  28 H :    0.366191
Sum of atomic charges:    0.0000000

LOEWDIN ATOMIC CHARGES
----------------------
   0 C :    0.178000
   1 C :   -0.229546
   2 C :   -0.216001
   3 C :   -0.025705
   4 O :   -0.308091
   5 H :    0.094620
   6 H :    0.113787
   7 H :    0.118514
   8 H :    0.115006
   9 H :    0.120538
  10 H :    0.109325
  11 H :    0.101660
  12 C :   -0.036809
  13 H :    0.091907
  14 H :    0.124727
  15 O :   -0.334357
  16 C :    0.005964
  17 C :    0.031949
  18 C :   -0.242545
  19 C :   -0.038299
  20 O :   -0.326789
  21 H :    0.117192
  22 O :   -0.414250
  23 H :    0.116000
  24 H :    0.128231
  25 H :    0.112048
  26 H :    0.105909
  27 H :    0.103309
  28 H :    0.283705

  Mayer bond orders larger than 0.100000
B(  0-C ,  1-C ) :   0.9349 B(  0-C ,  4-O ) :   0.9358 B(  0-C ,  5-H ) :   0.9168
B(  0-C , 15-O ) :   0.8339 B(  1-C ,  2-C ) :   0.9493 B(  1-C ,  6-H ) :   0.9350
B(  1-C ,  7-H ) :   0.9196 B(  2-C ,  3-C ) :   0.9541 B(  2-C ,  8-H ) :   0.9445
B(  2-C ,  9-H ) :   0.9431 B(  3-C ,  4-O ) :   0.8340 B(  3-C , 10-H ) :   0.9345
B(  3-C , 11-H ) :   0.9397 B( 12-C , 13-H ) :   0.9235 B( 12-C , 14-H ) :   0.9320
B( 12-C , 15-O ) :   0.8555 B( 12-C , 16-C ) :   0.8743 B( 16-C , 17-C ) :   0.9119
B( 16-C , 20-O ) :   0.8297 B( 16-C , 21-H ) :   0.9257 B( 17-C , 18-C ) :   0.9110
B( 17-C , 22-O ) :   0.8949 B( 17-C , 23-H ) :   0.9133 B( 18-C , 19-C ) :   0.9399
B( 18-C , 24-H ) :   0.9371 B( 18-C , 25-H ) :   0.9328 B( 19-C , 20-O ) :   0.8389
B( 19-C , 26-H ) :   0.9342 B( 19-C , 27-H ) :   0.9385 B( 22-O , 28-H ) :   0.7935

FINAL SINGLE POINT ENERGY      -652.856756576016

DIPOLE MOMENT
-------------
                                X             Y             Z
Electronic contribution:     -3.61192      -0.89611       0.28387
Nuclear contribution   :      4.15800       0.90574      -0.83588
                        -----------------------------------------
Total Dipole Moment    :      0.54609       0.00963      -0.55200
                        -----------------------------------------
Magnitude (a.u.)       :      0.77654
Magnitude (Debye)      :      1.97381

Rotational constants in cm-1:     0.055855     0.013599     0.012511
Rotational constants in MHz :  1674.500012   407.676932   375.075423

                             ****ORCA TERMINATED NORMALLY****
TOTAL RUN TIME: 0 days 0 hours 47 minutes 34 seconds 866 msec
