                         Program Version 4.2.0 -  RELEASE  -
|  1> # Test redundant internal optimization
|  2> #
|  3> ! RKS B3LYP  Opt TightSCF SmallPrint
|  4>
|  5> %basis
|  6>         Basis "6-31G"
|  7> end
|  8>
|  9> %geom
| 10> Constraints
| 11> { D 4  0  15  12  195.0   C } # D for Dihedral angle
| 12> { D 0  15  12  16  240.0   C } # D for Dihedral angle
| 13> { D 0  4  3  2   C } # D for Dihedral angle
| 14> { D 4  3  2  1   C } # D for Dihedral angle
| 15> { D 3  2  1  0   C } # D for Dihedral angle
| 16> { D 2  1  0  4   C } # D for Dihedral angle
| 17> { D 1  0  4  3   C } # D for Dihedral angle
| 18> { D 16  20  19  18   C } # D for Dihedral angle
| 19> { D 20  19  18  17   C } # D for Dihedral angle
| 20> { D 19  18  17  16   C } # D for Dihedral angle
| 21> { D 18  17  16  20   C } # D for Dihedral angle
| 22> { D 17  16  20  19   C } # D for Dihedral angle
| 23> { D 15  12  16  20   C } # D for Dihedral angle
| 24> end
| 25> end
| 26>
| 27>
| 28> #%pal
| 29> #nprocs 8
| 30> #end
| 31>
| 32> * xyz 0 1
| 33> C  -21.048   26.222   46.251
| 34> C  -20.361   27.558   45.944
| 35> C  -20.329   28.222   47.341
| 36> C  -20.110   27.022   48.296
| 37> O  -20.473   25.807   47.535
| 38> H  -20.833   25.428   45.533
| 39> H  -19.344   27.382   45.576
| 40> H  -20.898   28.157   45.201
| 41> H  -19.543   28.978   47.434
| 42> H  -21.289   28.710   47.548
| 43> H  -20.733   27.082   49.195
| 44> H  -19.064   26.913   48.597
| 45> C  -23.353   26.472   45.026
| 46> H  -22.639   26.379   44.198
| 47> H  -24.077   25.651   44.948
| 48> O  -22.586   26.394   46.375
| 49> C  -24.130   27.807   44.854
| 50> C  -24.965   27.802   43.569
| 51> C  -26.193   26.963   43.996
| 52> C  -26.390   27.360   45.481
| 53> O  -25.118   27.967   45.926
| 54> H  -23.430   28.641   44.935
| 55> H  -25.266   28.824   43.311
| 56> O  -24.213   27.192   42.354
| 57> H  -27.080   27.169   43.388
| 58> H  -25.968   25.894   43.909
| 59> H  -26.619   26.498   46.118
| 60> H  -27.171   28.115   45.611
| 61> H  -23.903   26.168   42.588
| 62> *
| 63>
| 64>                          ****END OF INPUT****
 Total Charge           Charge          ....    0
 Multiplicity           Mult            ....    1
 Number of Electrons    NEL             ....  102
FINAL SINGLE POINT ENERGY      -652.824311597695
FINAL SINGLE POINT ENERGY      -652.847529875565
FINAL SINGLE POINT ENERGY      -652.851665693834
FINAL SINGLE POINT ENERGY      -652.852496175514
FINAL SINGLE POINT ENERGY      -652.852682024165
FINAL SINGLE POINT ENERGY      -652.852717114686
FINAL SINGLE POINT ENERGY      -652.852727859910
FINAL SINGLE POINT ENERGY      -652.852730303089
                    ***********************HURRAY********************

CARTESIAN COORDINATES (ANGSTROEM)
---------------------------------
  C    -21.058208   26.217371   46.196426
  C    -20.389299   27.558655   45.904953
  C    -20.449871   28.255185   47.286315
  C    -20.257675   27.082883   48.269831
  O    -20.557772   25.852780   47.487971
  H    -20.809796   25.407868   45.501616
  H    -19.349870   27.384405   45.600910
  H    -20.885612   28.127934   45.114409
  H    -19.684146   29.028336   47.399939
  H    -21.433196   28.713593   47.424631
  H    -20.934887   27.122152   49.125968
  H    -19.226738   26.983649   48.622121
  C    -23.243083   26.380043   45.052727
  H    -22.564303   26.282697   44.193052
  H    -23.924966   25.519111   45.055343
  O    -22.507624   26.348555   46.306409
  C    -24.022730   27.688277   44.911456
  C    -24.864615   27.767959   43.626713
  C    -26.153245   26.993141   44.038944
  C    -26.311817   27.369278   45.529113
  O    -24.994516   27.883879   45.981537
  H    -23.320345   28.523661   44.991603
  H    -25.100430   28.812458   43.411923
  O    -24.212538   27.283773   42.426488
  H    -27.017514   27.276167   43.432156
  H    -25.989257   25.913864   43.913347
  H    -26.596057   26.518908   46.156355
  H    -27.037161   28.175180   45.677049
  H    -24.228729   26.305237   42.398696

 Multiplicity           Mult            ....    1
 Number of Electrons    NEL             ....  102
 Basis Dimension        Dim             ....  149

ORBITAL ENERGIES
----------------

  NO   OCC          E(Eh)            E(eV)
   0   2.0000     -19.153520      -521.1938
   1   2.0000     -19.137886      -520.7683
   2   2.0000     -19.136553      -520.7321
   3   2.0000     -19.135059      -520.6914
   4   2.0000     -10.276512      -279.6381
   5   2.0000     -10.248148      -278.8663
   6   2.0000     -10.232683      -278.4455
   7   2.0000     -10.232016      -278.4273
   8   2.0000     -10.231722      -278.4193
   9   2.0000     -10.220265      -278.1076
  10   2.0000     -10.199071      -277.5308
  11   2.0000     -10.183616      -277.1103
  12   2.0000     -10.181458      -277.0515
  13   2.0000      -1.049592       -28.5609
  14   2.0000      -1.036401       -28.2019
  15   2.0000      -1.017656       -27.6918
  16   2.0000      -0.989681       -26.9306
  17   2.0000      -0.785458       -21.3734
  18   2.0000      -0.782060       -21.2809
  19   2.0000      -0.768046       -20.8996
  20   2.0000      -0.729835       -19.8598
  21   2.0000      -0.681710       -18.5503
  22   2.0000      -0.614483       -16.7209
  23   2.0000      -0.596218       -16.2239
  24   2.0000      -0.590372       -16.0648
  25   2.0000      -0.578446       -15.7403
  26   2.0000      -0.526527       -14.3275
  27   2.0000      -0.511959       -13.9311
  28   2.0000      -0.501237       -13.6394
  29   2.0000      -0.491140       -13.3646
  30   2.0000      -0.465743       -12.6735
  31   2.0000      -0.455259       -12.3882
  32   2.0000      -0.447901       -12.1880
  33   2.0000      -0.435985       -11.8638
  34   2.0000      -0.427396       -11.6300
  35   2.0000      -0.422644       -11.5007
  36   2.0000      -0.406336       -11.0570
  37   2.0000      -0.399888       -10.8815
  38   2.0000      -0.377415       -10.2700
  39   2.0000      -0.373234       -10.1562
  40   2.0000      -0.356312        -9.6957
  41   2.0000      -0.353969        -9.6320
  42   2.0000      -0.349779        -9.5180
  43   2.0000      -0.331403        -9.0179
  44   2.0000      -0.319603        -8.6968
  45   2.0000      -0.307845        -8.3769
  46   2.0000      -0.299676        -8.1546
  47   2.0000      -0.274448        -7.4681
  48   2.0000      -0.258085        -7.0229
  49   2.0000      -0.254724        -6.9314
  50   2.0000      -0.234527        -6.3818
  51   0.0000       0.047350         1.2885
  52   0.0000       0.078193         2.1277
  53   0.0000       0.081833         2.2268
  54   0.0000       0.089467         2.4345
  55   0.0000       0.098951         2.6926

MULLIKEN ATOMIC CHARGES
-----------------------
   0 C :    0.290584
   1 C :   -0.271814
   2 C :   -0.301998
   3 C :   -0.000489
   4 O :   -0.502580
   5 H :    0.136610
   6 H :    0.143369
   7 H :    0.143886
   8 H :    0.140283
   9 H :    0.170902
  10 H :    0.157706
  11 H :    0.139636
  12 C :   -0.027861
  13 H :    0.127550
  14 H :    0.135697
  15 O :   -0.491922
  16 C :    0.097730
  17 C :    0.080432
  18 C :   -0.327809
  19 C :   -0.014474
  20 O :   -0.502330
  21 H :    0.154534
  22 H :    0.168701
  23 O :   -0.599614
  24 H :    0.158946
  25 H :    0.135533
  26 H :    0.151904
  27 H :    0.151313
  28 H :    0.355575
Sum of atomic charges:   -0.0000000

LOEWDIN ATOMIC CHARGES
----------------------
   0 C :    0.179179
   1 C :   -0.231391
   2 C :   -0.217799
   3 C :   -0.023924
   4 O :   -0.303269
   5 H :    0.094316
   6 H :    0.113111
   7 H :    0.113099
   8 H :    0.113702
   9 H :    0.122702
  10 H :    0.111397
  11 H :    0.101287
  12 C :   -0.052497
  13 H :    0.097829
  14 H :    0.100170
  15 O :   -0.322977
  16 C :    0.015528
  17 C :    0.032566
  18 C :   -0.242352
  19 C :   -0.030523
  20 O :   -0.312683
  21 H :    0.112337
  22 H :    0.119762
  23 O :   -0.408224
  24 H :    0.123127
  25 H :    0.104547
  26 H :    0.106667
  27 H :    0.106642
  28 H :    0.277670

  Mayer bond orders larger than 0.100000
B(  0-C ,  1-C ) :   0.9274 B(  0-C ,  4-O ) :   0.9419 B(  0-C ,  5-H ) :   0.9197
B(  0-C , 15-O ) :   0.8389 B(  1-C ,  2-C ) :   0.9528 B(  1-C ,  6-H ) :   0.9334
B(  1-C ,  7-H ) :   0.9337 B(  2-C ,  3-C ) :   0.9558 B(  2-C ,  8-H ) :   0.9450
B(  2-C ,  9-H ) :   0.9407 B(  3-C ,  4-O ) :   0.8333 B(  3-C , 10-H ) :   0.9342
B(  3-C , 11-H ) :   0.9400 B( 12-C , 13-H ) :   0.9035 B( 12-C , 14-H ) :   0.9296
B( 12-C , 15-O ) :   0.8578 B( 12-C , 16-C ) :   0.8936 B( 16-C , 17-C ) :   0.8675
B( 16-C , 20-O ) :   0.8737 B( 16-C , 21-H ) :   0.9301 B( 17-C , 18-C ) :   0.9268
B( 17-C , 22-H ) :   0.9322 B( 17-C , 23-O ) :   0.8934 B( 18-C , 19-C ) :   0.9393
B( 18-C , 24-H ) :   0.9413 B( 18-C , 25-H ) :   0.9397 B( 19-C , 20-O ) :   0.8495
B( 19-C , 26-H ) :   0.9302 B( 19-C , 27-H ) :   0.9373 B( 23-O , 28-H ) :   0.7989

FINAL SINGLE POINT ENERGY      -652.852730997276

DIPOLE MOMENT
-------------
                                X             Y             Z
Electronic contribution:     -0.32197      -1.97405       0.64690
Nuclear contribution   :      0.01675       2.08639      -1.50588
                        -----------------------------------------
Total Dipole Moment    :     -0.30522       0.11234      -0.85898
                        -----------------------------------------
Magnitude (a.u.)       :      0.91849
Magnitude (Debye)      :      2.33463

Rotational constants in cm-1:     0.055314     0.012879     0.011994
Rotational constants in MHz :  1658.276411   386.106777   359.577757

                             ****ORCA TERMINATED NORMALLY****
TOTAL RUN TIME: 0 days 0 hours 25 minutes 43 seconds 663 msec
