                         Program Version 4.2.0 -  RELEASE  -
|  1> # Test redundant internal optimization
|  2> #
|  3> ! RKS B3LYP  Opt TightSCF SmallPrint
|  4>
|  5> %basis
|  6>         Basis "6-31G"
|  7> end
|  8>
|  9> %geom
| 10> Constraints
| 11> { D 4  0  15  12  30.0   C } # D for Dihedral angle
| 12> { D 0  15  12  16  225.0   C } # D for Dihedral angle
| 13> { D 0  4  3  2   C } # D for Dihedral angle
| 14> { D 4  3  2  1   C } # D for Dihedral angle
| 15> { D 3  2  1  0   C } # D for Dihedral angle
| 16> { D 2  1  0  4   C } # D for Dihedral angle
| 17> { D 1  0  4  3   C } # D for Dihedral angle
| 18> { D 16  20  19  18   C } # D for Dihedral angle
| 19> { D 20  19  18  17   C } # D for Dihedral angle
| 20> { D 19  18  17  16   C } # D for Dihedral angle
| 21> { D 18  17  16  20   C } # D for Dihedral angle
| 22> { D 17  16  20  19   C } # D for Dihedral angle
| 23> { D 15  12  16  20   C } # D for Dihedral angle
| 24> end
| 25> end
| 26>
| 27>
| 28> #%pal
| 29> #nprocs 8
| 30> #end
| 31>
| 32> * xyz 0 1
| 33> C  -21.048   26.222   46.251
| 34> C  -20.361   27.558   45.944
| 35> C  -20.329   28.222   47.341
| 36> C  -20.110   27.022   48.296
| 37> O  -20.473   25.807   47.535
| 38> H  -20.833   25.428   45.533
| 39> H  -19.344   27.382   45.576
| 40> H  -20.898   28.157   45.201
| 41> H  -19.543   28.978   47.434
| 42> H  -21.289   28.710   47.548
| 43> H  -20.733   27.082   49.195
| 44> H  -19.064   26.913   48.597
| 45> C  -23.091   26.824   47.779
| 46> H  -22.287   26.683   48.512
| 47> H  -23.372   27.885   47.778
| 48> O  -22.586   26.394   46.375
| 49> C  -24.328   26.009   48.248
| 50> C  -25.467   26.086   47.224
| 51> C  -25.002   25.062   46.161
| 52> C  -24.304   23.968   47.008
| 53> O  -24.004   24.581   48.321
| 54> H  -24.605   26.326   49.255
| 55> O  -26.801   25.632   47.876
| 56> H  -25.608   27.091   46.812
| 57> H  -25.829   24.663   45.565
| 58> H  -24.289   25.531   45.473
| 59> H  -23.371   23.617   46.554
| 60> H  -24.952   23.107   47.195
| 61> H  -26.683   24.627   48.295
| 62> *
| 63>
| 64>                          ****END OF INPUT****
 Total Charge           Charge          ....    0
 Multiplicity           Mult            ....    1
 Number of Electrons    NEL             ....  102
FINAL SINGLE POINT ENERGY      -652.826751819322
FINAL SINGLE POINT ENERGY      -652.850649817593
FINAL SINGLE POINT ENERGY      -652.856910342121
FINAL SINGLE POINT ENERGY      -652.859301038852
FINAL SINGLE POINT ENERGY      -652.859541885875
FINAL SINGLE POINT ENERGY      -652.859581383248
FINAL SINGLE POINT ENERGY      -652.859584651027
                    ***********************HURRAY********************

CARTESIAN COORDINATES (ANGSTROEM)
---------------------------------
  C    -21.123857   26.296490   46.419563
  C    -20.408582   27.581323   45.990729
  C    -20.158302   28.280395   47.353435
  C    -19.886787   27.091774   48.304686
  O    -20.423596   25.887929   47.611192
  H    -21.023800   25.479584   45.703421
  H    -19.460293   27.318435   45.508423
  H    -21.007334   28.177291   45.298402
  H    -19.317350   28.979636   47.319610
  H    -21.046355   28.841615   47.663577
  H    -20.375063   27.189281   49.278323
  H    -18.819170   26.910207   48.457924
  C    -23.159859   26.836085   47.828190
  H    -22.435924   26.684119   48.632668
  H    -23.455238   27.894527   47.793895
  O    -22.565065   26.446897   46.558853
  C    -24.378872   25.969636   48.151486
  C    -25.537005   26.003845   47.144054
  C    -25.072666   24.962231   46.092210
  C    -24.343226   23.901620   46.952572
  O    -24.032478   24.553730   48.247777
  H    -24.740075   26.276587   49.140831
  O    -26.787044   25.622695   47.787412
  H    -25.723849   26.991538   46.721399
  H    -25.927882   24.555254   45.545674
  H    -24.378339   25.436103   45.396388
  H    -23.408741   23.564656   46.497937
  H    -24.967567   23.029376   47.174295
  H    -26.639680   24.804140   48.307076

 Multiplicity           Mult            ....    1
 Number of Electrons    NEL             ....  102
 Basis Dimension        Dim             ....  149

ORBITAL ENERGIES
----------------

  NO   OCC          E(Eh)            E(eV)
   0   2.0000     -19.152358      -521.1621
   1   2.0000     -19.144765      -520.9555
   2   2.0000     -19.132573      -520.6238
   3   2.0000     -19.130541      -520.5685
   4   2.0000     -10.283437      -279.8265
   5   2.0000     -10.235875      -278.5323
   6   2.0000     -10.231469      -278.4124
   7   2.0000     -10.231281      -278.4073
   8   2.0000     -10.228806      -278.3400
   9   2.0000     -10.217838      -278.0415
  10   2.0000     -10.196782      -277.4685
  11   2.0000     -10.190564      -277.2993
  12   2.0000     -10.171210      -276.7727
  13   2.0000      -1.057955       -28.7884
  14   2.0000      -1.028171       -27.9780
  15   2.0000      -1.001405       -27.2496
  16   2.0000      -0.992798       -27.0154
  17   2.0000      -0.793769       -21.5995
  18   2.0000      -0.776711       -21.1354
  19   2.0000      -0.761268       -20.7152
  20   2.0000      -0.735191       -20.0056
  21   2.0000      -0.673166       -18.3178
  22   2.0000      -0.608314       -16.5531
  23   2.0000      -0.602700       -16.4003
  24   2.0000      -0.591974       -16.1084
  25   2.0000      -0.567081       -15.4311
  26   2.0000      -0.525094       -14.2885
  27   2.0000      -0.510020       -13.8783
  28   2.0000      -0.496481       -13.5099
  29   2.0000      -0.483360       -13.1529
  30   2.0000      -0.477402       -12.9908
  31   2.0000      -0.459663       -12.5081
  32   2.0000      -0.447728       -12.1833
  33   2.0000      -0.436456       -11.8766
  34   2.0000      -0.422748       -11.5035
  35   2.0000      -0.410606       -11.1732
  36   2.0000      -0.397387       -10.8134
  37   2.0000      -0.382466       -10.4074
  38   2.0000      -0.381031       -10.3684
  39   2.0000      -0.366798        -9.9811
  40   2.0000      -0.364662        -9.9230
  41   2.0000      -0.358320        -9.7504
  42   2.0000      -0.348485        -9.4828
  43   2.0000      -0.328960        -8.9515
  44   2.0000      -0.322947        -8.7878
  45   2.0000      -0.310047        -8.4368
  46   2.0000      -0.295246        -8.0340
  47   2.0000      -0.269498        -7.3334
  48   2.0000      -0.263237        -7.1631
  49   2.0000      -0.255977        -6.9655
  50   2.0000      -0.235414        -6.4059
  51   0.0000       0.069255         1.8845
  52   0.0000       0.077802         2.1171
  53   0.0000       0.092110         2.5064
  54   0.0000       0.102912         2.8004
  55   0.0000       0.108005         2.9390

MULLIKEN ATOMIC CHARGES
-----------------------
   0 C :    0.303925
   1 C :   -0.260531
   2 C :   -0.312268
   3 C :   -0.023762
   4 O :   -0.500842
   5 H :    0.161179
   6 H :    0.148898
   7 H :    0.155245
   8 H :    0.150097
   9 H :    0.151478
  10 H :    0.148187
  11 H :    0.153594
  12 C :   -0.009739
  13 H :    0.166027
  14 H :    0.124995
  15 O :   -0.538398
  16 C :    0.076780
  17 C :    0.077195
  18 C :   -0.281626
  19 C :   -0.020852
  20 O :   -0.522884
  21 H :    0.148235
  22 O :   -0.605772
  23 H :    0.147067
  24 H :    0.144347
  25 H :    0.173071
  26 H :    0.150000
  27 H :    0.134600
  28 H :    0.361753
Sum of atomic charges:   -0.0000000

LOEWDIN ATOMIC CHARGES
----------------------
   0 C :    0.181700
   1 C :   -0.225686
   2 C :   -0.222514
   3 C :   -0.034954
   4 O :   -0.311489
   5 H :    0.110004
   6 H :    0.116740
   7 H :    0.122434
   8 H :    0.118728
   9 H :    0.111766
  10 H :    0.102767
  11 H :    0.108041
  12 C :   -0.042069
  13 H :    0.116385
  14 H :    0.093936
  15 O :   -0.335290
  16 C :    0.014271
  17 C :    0.038461
  18 C :   -0.241022
  19 C :   -0.032950
  20 O :   -0.326909
  21 H :    0.112738
  22 O :   -0.419354
  23 H :    0.113876
  24 H :    0.116801
  25 H :    0.129664
  26 H :    0.107402
  27 H :    0.095284
  28 H :    0.281242

  Mayer bond orders larger than 0.100000
B(  0-C ,  1-C ) :   0.9192 B(  0-C ,  4-O ) :   0.9179 B(  0-C ,  5-H ) :   0.9347
B(  0-C , 15-O ) :   0.8575 B(  1-C ,  2-C ) :   0.9549 B(  1-C ,  6-H ) :   0.9346
B(  1-C ,  7-H ) :   0.9372 B(  2-C ,  3-C ) :   0.9493 B(  2-C ,  8-H ) :   0.9446
B(  2-C ,  9-H ) :   0.9439 B(  3-C ,  4-O ) :   0.8337 B(  3-C , 10-H ) :   0.9297
B(  3-C , 11-H ) :   0.9397 B( 12-C , 13-H ) :   0.9060 B( 12-C , 14-H ) :   0.9148
B( 12-C , 15-O ) :   0.8463 B( 12-C , 16-C ) :   0.8927 B( 16-C , 17-C ) :   0.9118
B( 16-C , 20-O ) :   0.8773 B( 16-C , 21-H ) :   0.9218 B( 17-C , 18-C ) :   0.9244
B( 17-C , 22-O ) :   0.8888 B( 17-C , 23-H ) :   0.9366 B( 18-C , 19-C ) :   0.9448
B( 18-C , 24-H ) :   0.9379 B( 18-C , 25-H ) :   0.9194 B( 19-C , 20-O ) :   0.8394
B( 19-C , 26-H ) :   0.9347 B( 19-C , 27-H ) :   0.9371 B( 22-O , 28-H ) :   0.7963

FINAL SINGLE POINT ENERGY      -652.859583211907

DIPOLE MOMENT
-------------
                                X             Y             Z
Electronic contribution:     -2.99518      -3.44000       1.55954
Nuclear contribution   :      3.99273       4.33201      -1.88958
                        -----------------------------------------
Total Dipole Moment    :      0.99756       0.89201      -0.33005
                        -----------------------------------------
Magnitude (a.u.)       :      1.37831
Magnitude (Debye)      :      3.50338

Rotational constants in cm-1:     0.061488     0.013781     0.013616
Rotational constants in MHz :  1843.356911   413.146407   408.191605

                             ****ORCA TERMINATED NORMALLY****
TOTAL RUN TIME: 0 days 0 hours 20 minutes 14 seconds 850 msec
