                         Program Version 4.2.0 -  RELEASE  -
|  1> # Test redundant internal optimization
|  2> #
|  3> ! RKS B3LYP  Opt TightSCF SmallPrint
|  4>
|  5> %basis
|  6>         Basis "6-31G"
|  7> end
|  8>
|  9> %geom
| 10> Constraints
| 11> { D 4  0  15  12  0.0   C } # D for Dihedral angle
| 12> { D 0  15  12  16  165.0   C } # D for Dihedral angle
| 13> { D 0  4  3  2   C } # D for Dihedral angle
| 14> { D 4  3  2  1   C } # D for Dihedral angle
| 15> { D 3  2  1  0   C } # D for Dihedral angle
| 16> { D 2  1  0  4   C } # D for Dihedral angle
| 17> { D 1  0  4  3   C } # D for Dihedral angle
| 18> { D 16  20  19  18   C } # D for Dihedral angle
| 19> { D 20  19  18  17   C } # D for Dihedral angle
| 20> { D 19  18  17  16   C } # D for Dihedral angle
| 21> { D 18  17  16  20   C } # D for Dihedral angle
| 22> { D 17  16  20  19   C } # D for Dihedral angle
| 23> { D 15  12  16  20   C } # D for Dihedral angle
| 24> end
| 25> end
| 26>
| 27>
| 28> #%pal
| 29> #nprocs 8
| 30> #end
| 31>
| 32> * xyz 0 1
| 33> C  -21.048   26.222   46.251
| 34> C  -20.361   27.558   45.944
| 35> C  -20.329   28.222   47.341
| 36> C  -20.110   27.022   48.296
| 37> O  -20.473   25.807   47.535
| 38> H  -20.833   25.428   45.533
| 39> H  -19.344   27.382   45.576
| 40> H  -20.898   28.157   45.201
| 41> H  -19.543   28.978   47.434
| 42> H  -21.289   28.710   47.548
| 43> H  -20.733   27.082   49.195
| 44> H  -19.064   26.913   48.597
| 45> C  -23.172   26.101   47.783
| 46> H  -23.182   25.017   47.953
| 47> H  -22.551   26.564   48.561
| 48> O  -22.586   26.394   46.375
| 49> C  -24.621   26.635   47.954
| 50> C  -25.594   25.914   47.015
| 51> C  -25.831   24.584   47.770
| 52> C  -25.791   25.013   49.259
| 53> O  -25.124   26.332   49.298
| 54> H  -24.616   27.722   47.852
| 55> O  -26.916   26.721   46.897
| 56> H  -25.191   25.765   46.008
| 57> H  -26.777   24.105   47.499
| 58> H  -25.022   23.878   47.549
| 59> H  -25.231   24.309   49.883
| 60> H  -26.790   25.144   49.682
| 61> H  -27.340   26.882   47.896
| 62> *
| 63>
| 64>                          ****END OF INPUT****
 Total Charge           Charge          ....    0
 Multiplicity           Mult            ....    1
 Number of Electrons    NEL             ....  102
FINAL SINGLE POINT ENERGY      -652.834707307872
FINAL SINGLE POINT ENERGY      -652.857972638243
FINAL SINGLE POINT ENERGY      -652.862136703134
FINAL SINGLE POINT ENERGY      -652.862789102946
FINAL SINGLE POINT ENERGY      -652.862876854555
FINAL SINGLE POINT ENERGY      -652.862892439090
                    ***********************HURRAY********************

CARTESIAN COORDINATES (ANGSTROEM)
---------------------------------
  C    -21.156385   26.218529   46.372233
  C    -20.597486   27.584338   45.971367
  C    -20.370593   28.250495   47.348933
  C    -19.939924   27.068139   48.245278
  O    -20.373195   25.837419   47.523277
  H    -21.014226   25.429916   45.629442
  H    -19.649513   27.444218   45.438963
  H    -21.288069   28.138472   45.332062
  H    -19.614286   29.040604   47.315547
  H    -21.305548   28.693015   47.708132
  H    -20.403878   27.078413   49.235388
  H    -18.854504   26.993266   48.358894
  C    -23.113016   26.014315   47.947829
  H    -23.086488   24.935442   48.147294
  H    -22.538830   26.511160   48.734731
  O    -22.590605   26.304457   46.620155
  C    -24.541576   26.552480   47.969725
  C    -25.506451   25.888271   46.978196
  C    -25.872861   24.581266   47.726292
  C    -25.889806   25.016225   49.213032
  O    -25.137977   26.294792   49.286078
  H    -24.525224   27.636536   47.826796
  O    -26.675085   26.727107   46.755611
  H    -25.063395   25.727520   45.997185
  H    -26.837354   24.197931   47.384558
  H    -25.113574   23.812979   47.543556
  H    -25.414609   24.287412   49.876665
  H    -26.900958   25.216251   49.581213
  H    -26.984586   27.080032   47.616568

 Multiplicity           Mult            ....    1
 Number of Electrons    NEL             ....  102
 Basis Dimension        Dim             ....  149

ORBITAL ENERGIES
----------------

  NO   OCC          E(Eh)            E(eV)
   0   2.0000     -19.152576      -521.1681
   1   2.0000     -19.142726      -520.9000
   2   2.0000     -19.141596      -520.8693
   3   2.0000     -19.132085      -520.6105
   4   2.0000     -10.281677      -279.7787
   5   2.0000     -10.234464      -278.4939
   6   2.0000     -10.231969      -278.4260
   7   2.0000     -10.229907      -278.3699
   8   2.0000     -10.229409      -278.3564
   9   2.0000     -10.228215      -278.3239
  10   2.0000     -10.192997      -277.3655
  11   2.0000     -10.187738      -277.2224
  12   2.0000     -10.184550      -277.1357
  13   2.0000      -1.057160       -28.7668
  14   2.0000      -1.033334       -28.1184
  15   2.0000      -1.001348       -27.2481
  16   2.0000      -0.994949       -27.0739
  17   2.0000      -0.793389       -21.5892
  18   2.0000      -0.777867       -21.1669
  19   2.0000      -0.767851       -20.8943
  20   2.0000      -0.732854       -19.9420
  21   2.0000      -0.672379       -18.2964
  22   2.0000      -0.605888       -16.4871
  23   2.0000      -0.601401       -16.3650
  24   2.0000      -0.592054       -16.1106
  25   2.0000      -0.576135       -15.6774
  26   2.0000      -0.524009       -14.2590
  27   2.0000      -0.513205       -13.9650
  28   2.0000      -0.500760       -13.6264
  29   2.0000      -0.491418       -13.3722
  30   2.0000      -0.473539       -12.8857
  31   2.0000      -0.455867       -12.4048
  32   2.0000      -0.445725       -12.1288
  33   2.0000      -0.437905       -11.9160
  34   2.0000      -0.421027       -11.4567
  35   2.0000      -0.416980       -11.3466
  36   2.0000      -0.401769       -10.9327
  37   2.0000      -0.389592       -10.6013
  38   2.0000      -0.376646       -10.2491
  39   2.0000      -0.364443        -9.9170
  40   2.0000      -0.362766        -9.8714
  41   2.0000      -0.355072        -9.6620
  42   2.0000      -0.351688        -9.5699
  43   2.0000      -0.343029        -9.3343
  44   2.0000      -0.323650        -8.8070
  45   2.0000      -0.311883        -8.4868
  46   2.0000      -0.301287        -8.1984
  47   2.0000      -0.269616        -7.3366
  48   2.0000      -0.264187        -7.1889
  49   2.0000      -0.251647        -6.8477
  50   2.0000      -0.244909        -6.6643
  51   0.0000       0.067824         1.8456
  52   0.0000       0.068952         1.8763
  53   0.0000       0.095200         2.5905
  54   0.0000       0.099123         2.6973
  55   0.0000       0.102116         2.7787

MULLIKEN ATOMIC CHARGES
-----------------------
   0 C :    0.306583
   1 C :   -0.257699
   2 C :   -0.308429
   3 C :   -0.023956
   4 O :   -0.510982
   5 H :    0.156424
   6 H :    0.145814
   7 H :    0.162068
   8 H :    0.149484
   9 H :    0.156646
  10 H :    0.150345
  11 H :    0.153410
  12 C :    0.011677
  13 H :    0.134857
  14 H :    0.147150
  15 O :   -0.552365
  16 C :    0.055276
  17 C :    0.091409
  18 C :   -0.298941
  19 C :   -0.034192
  20 O :   -0.529725
  21 H :    0.160168
  22 O :   -0.605010
  23 H :    0.175802
  24 H :    0.159384
  25 H :    0.148746
  26 H :    0.149077
  27 H :    0.145587
  28 H :    0.361394
Sum of atomic charges:   -0.0000000

LOEWDIN ATOMIC CHARGES
----------------------
   0 C :    0.183814
   1 C :   -0.220387
   2 C :   -0.219787
   3 C :   -0.034356
   4 O :   -0.318404
   5 H :    0.104851
   6 H :    0.114455
   7 H :    0.126347
   8 H :    0.118588
   9 H :    0.115108
  10 H :    0.103789
  11 H :    0.107997
  12 C :   -0.032458
  13 H :    0.096624
  14 H :    0.104568
  15 O :   -0.347853
  16 C :    0.016763
  17 C :    0.038728
  18 C :   -0.241286
  19 C :   -0.039084
  20 O :   -0.332991
  21 H :    0.115257
  22 O :   -0.416275
  23 H :    0.127817
  24 H :    0.125725
  25 H :    0.115223
  26 H :    0.104817
  27 H :    0.101908
  28 H :    0.280504

  Mayer bond orders larger than 0.100000
B(  0-C ,  1-C ) :   0.9323 B(  0-C ,  4-O ) :   0.9150 B(  0-C ,  5-H ) :   0.9298
B(  0-C , 15-O ) :   0.8332 B(  1-C ,  2-C ) :   0.9524 B(  1-C ,  6-H ) :   0.9351
B(  1-C ,  7-H ) :   0.9358 B(  2-C ,  3-C ) :   0.9530 B(  2-C ,  8-H ) :   0.9444
B(  2-C ,  9-H ) :   0.9449 B(  3-C ,  4-O ) :   0.8286 B(  3-C , 10-H ) :   0.9291
B(  3-C , 11-H ) :   0.9394 B( 12-C , 13-H ) :   0.9238 B( 12-C , 14-H ) :   0.9123
B( 12-C , 15-O ) :   0.8126 B( 12-C , 16-C ) :   0.9003 B( 16-C , 17-C ) :   0.9142
B( 16-C , 20-O ) :   0.8448 B( 16-C , 21-H ) :   0.9251 B( 17-C , 18-C ) :   0.9122
B( 17-C , 22-O ) :   0.8885 B( 17-C , 23-H ) :   0.9240 B( 18-C , 19-C ) :   0.9411
B( 18-C , 24-H ) :   0.9384 B( 18-C , 25-H ) :   0.9346 B( 19-C , 20-O ) :   0.8428
B( 19-C , 26-H ) :   0.9349 B( 19-C , 27-H ) :   0.9381 B( 22-O , 28-H ) :   0.7965

FINAL SINGLE POINT ENERGY      -652.862894321909

DIPOLE MOMENT
-------------
                                X             Y             Z
Electronic contribution:     -2.32561      -0.73007      -0.67306
Nuclear contribution   :      2.99428       0.81031       0.98403
                        -----------------------------------------
Total Dipole Moment    :      0.66867       0.08025       0.31097
                        -----------------------------------------
Magnitude (a.u.)       :      0.74180
Magnitude (Debye)      :      1.88550

Rotational constants in cm-1:     0.057062     0.012850     0.012161
Rotational constants in MHz :  1710.666223   385.224669   364.589098

                             ****ORCA TERMINATED NORMALLY****
TOTAL RUN TIME: 0 days 0 hours 21 minutes 42 seconds 98 msec
