                         Program Version 4.2.1 -  RELEASE  -
|  1> # Test redundant internal optimization
|  2> #
|  3> ! RKS B3LYP  Opt TightSCF SmallPrint
|  4>
|  5> %basis
|  6>         Basis "6-31G"
|  7> end
|  8>
|  9> %geom
| 10> Constraints
| 11> { D 4  0  19  14  285.0   C } # D for Dihedral angle
| 12> { D 0  19  14  12  0.0   C } # D for Dihedral angle
| 13> { D 0  4  3  2   C } # D for Dihedral angle
| 14> { D 4  3  2  1   C } # D for Dihedral angle
| 15> { D 3  2  1  0   C } # D for Dihedral angle
| 16> { D 2  1  0  4   C } # D for Dihedral angle
| 17> { D 1  0  4  3   C } # D for Dihedral angle
| 18> { D 14  15  16  17   C } # D for Dihedral angle
| 19> { D 15  16  17  12   C } # D for Dihedral angle
| 20> { D 16  17  12  14   C } # D for Dihedral angle
| 21> { D 17  12  14  15   C } # D for Dihedral angle
| 22> { D 12  14  15  16   C } # D for Dihedral angle
| 23> end
| 24> end
| 25>
| 26>
| 27> #%pal
| 28> #nprocs 8
| 29> #end
| 30>
| 31> * xyz 0 1
| 32> C  -21.048   26.222   46.251
| 33> C  -20.361   27.558   45.944
| 34> C  -20.329   28.222   47.341
| 35> C  -20.110   27.022   48.296
| 36> O  -20.473   25.807   47.535
| 37> H  -20.833   25.428   45.533
| 38> H  -19.344   27.382   45.576
| 39> H  -20.898   28.157   45.201
| 40> H  -19.543   28.978   47.434
| 41> H  -21.289   28.710   47.548
| 42> H  -20.733   27.082   49.195
| 43> H  -19.064   26.913   48.597
| 44> C  -22.237   23.959   46.338
| 45> H  -22.767   23.027   46.087
| 46> C  -23.203   25.146   46.420
| 47> C  -23.831   24.944   47.819
| 48> C  -22.658   24.372   48.653
| 49> O  -21.658   23.871   47.684
| 50> H  -21.408   24.097   45.643
| 51> O  -22.472   26.381   46.366
| 52> H  -23.948   25.150   45.617
| 53> H  -24.233   25.869   48.243
| 54> H  -24.653   24.219   47.762
| 55> H  -22.967   23.549   49.307
| 56> H  -22.163   25.138   49.258
| 57> *
| 58>
| 59>                          ****END OF INPUT****
 Total Charge           Charge          ....    0
 Multiplicity           Mult            ....    1
 Number of Electrons    NEL             ....   86
FINAL SINGLE POINT ENERGY      -538.392218520330
FINAL SINGLE POINT ENERGY      -538.425748143847
FINAL SINGLE POINT ENERGY      -538.428218962300
FINAL SINGLE POINT ENERGY      -538.428625678410
FINAL SINGLE POINT ENERGY      -538.428671810488
FINAL SINGLE POINT ENERGY      -538.428683484420
FINAL SINGLE POINT ENERGY      -538.428683962639
                    ***********************HURRAY********************

CARTESIAN COORDINATES (ANGSTROEM)
---------------------------------
  C    -20.825422   26.262052   46.233798
  C    -20.391047   27.701528   45.952172
  C    -20.410069   28.321413   47.369710
  C    -19.949170   27.152065   48.267760
  O    -20.140459   25.918609   47.462643
  H    -20.499965   25.524816   45.495467
  H    -19.375628   27.695014   45.539722
  H    -21.059853   28.204235   45.250965
  H    -19.757002   29.195124   47.456107
  H    -21.430201   28.624733   47.621984
  H    -20.528294   27.067277   49.190970
  H    -18.884608   27.201179   48.516029
  C    -22.405143   23.703923   46.379938
  H    -23.149349   22.942508   46.102110
  C    -23.089159   25.068297   46.431197
  C    -23.788700   25.012336   47.800075
  C    -22.804893   24.204176   48.679152
  O    -21.904237   23.492660   47.739394
  H    -21.552273   23.626866   45.703452
  O    -22.259033   26.278222   46.355056
  H    -23.813185   25.179688   45.615451
  H    -23.979521   26.019488   48.176600
  H    -24.748103   24.490796   47.700357
  H    -23.310540   23.470586   49.316183
  H    -22.167145   24.845407   49.291707

 Multiplicity           Mult            ....    1
 Number of Electrons    NEL             ....   86
 Basis Dimension        Dim             ....  127

ORBITAL ENERGIES
----------------

  NO   OCC          E(Eh)            E(eV)
   0   2.0000     -19.138371      -520.7816
   1   2.0000     -19.131276      -520.5885
   2   2.0000     -19.123628      -520.3804
   3   2.0000     -10.274698      -279.5887
   4   2.0000     -10.239404      -278.6284
   5   2.0000     -10.224468      -278.2219
   6   2.0000     -10.219270      -278.0805
   7   2.0000     -10.214984      -277.9639
   8   2.0000     -10.180966      -277.0382
   9   2.0000     -10.180738      -277.0320
  10   2.0000     -10.180688      -277.0306
  11   2.0000      -1.046012       -28.4634
  12   2.0000      -1.007239       -27.4084
  13   2.0000      -0.984552       -26.7910
  14   2.0000      -0.789874       -21.4936
  15   2.0000      -0.773074       -21.0364
  16   2.0000      -0.734754       -19.9937
  17   2.0000      -0.720638       -19.6096
  18   2.0000      -0.617157       -16.7937
  19   2.0000      -0.593656       -16.1542
  20   2.0000      -0.592329       -16.1181
  21   2.0000      -0.561680       -15.2841
  22   2.0000      -0.520166       -14.1544
  23   2.0000      -0.496915       -13.5218
  24   2.0000      -0.484256       -13.1773
  25   2.0000      -0.474689       -12.9169
  26   2.0000      -0.446206       -12.1419
  27   2.0000      -0.437601       -11.9077
  28   2.0000      -0.427584       -11.6352
  29   2.0000      -0.408932       -11.1276
  30   2.0000      -0.399440       -10.8693
  31   2.0000      -0.376639       -10.2489
  32   2.0000      -0.374423       -10.1886
  33   2.0000      -0.360748        -9.8164
  34   2.0000      -0.356754        -9.7078
  35   2.0000      -0.351120        -9.5545
  36   2.0000      -0.339687        -9.2434
  37   2.0000      -0.322086        -8.7644
  38   2.0000      -0.301645        -8.2082
  39   2.0000      -0.284151        -7.7321
  40   2.0000      -0.263513        -7.1705
  41   2.0000      -0.244020        -6.6401
  42   2.0000      -0.228518        -6.2183
  43   0.0000       0.077804         2.1171
  44   0.0000       0.096516         2.6263
  45   0.0000       0.101679         2.7668
  46   0.0000       0.110625         3.0102
  47   0.0000       0.116481         3.1696

MULLIKEN ATOMIC CHARGES
-----------------------
   0 C :    0.297556
   1 C :   -0.259546
   2 C :   -0.295865
   3 C :   -0.006263
   4 O :   -0.494083
   5 H :    0.140278
   6 H :    0.144239
   7 H :    0.153787
   8 H :    0.137866
   9 H :    0.157579
  10 H :    0.140726
  11 H :    0.142581
  12 C :   -0.028418
  13 H :    0.130419
  14 C :    0.102390
  15 C :   -0.298327
  16 C :    0.002290
  17 O :   -0.508158
  18 H :    0.158391
  19 O :   -0.542980
  20 H :    0.139936
  21 H :    0.159292
  22 H :    0.138737
  23 H :    0.132115
  24 H :    0.155459
Sum of atomic charges:    0.0000000

LOEWDIN ATOMIC CHARGES
----------------------
   0 C :    0.175159
   1 C :   -0.213986
   2 C :   -0.216235
   3 C :   -0.030013
   4 O :   -0.318045
   5 H :    0.094494
   6 H :    0.113126
   7 H :    0.122400
   8 H :    0.111996
   9 H :    0.116664
  10 H :    0.100799
  11 H :    0.102430
  12 C :   -0.049396
  13 H :    0.097437
  14 C :    0.044532
  15 C :   -0.230714
  16 C :   -0.029400
  17 O :   -0.322554
  18 H :    0.115101
  19 O :   -0.331479
  20 H :    0.104726
  21 H :    0.125910
  22 H :    0.110723
  23 H :    0.097324
  24 H :    0.109000

  Mayer bond orders larger than 0.100000
B(  0-C ,  1-C ) :   0.9424 B(  0-C ,  4-O ) :   0.9144 B(  0-C ,  5-H ) :   0.9189
B(  0-C , 19-O ) :   0.8542 B(  1-C ,  2-C ) :   0.9591 B(  1-C ,  6-H ) :   0.9409
B(  1-C ,  7-H ) :   0.9369 B(  2-C ,  3-C ) :   0.9532 B(  2-C ,  8-H ) :   0.9455
B(  2-C ,  9-H ) :   0.9450 B(  3-C ,  4-O ) :   0.8465 B(  3-C , 10-H ) :   0.9341
B(  3-C , 11-H ) :   0.9398 B( 12-C , 13-H ) :   0.9076 B( 12-C , 14-C ) :   0.9285
B( 12-C , 17-O ) :   0.8746 B( 12-C , 18-H ) :   0.9266 B( 14-C , 15-C ) :   0.9395
B( 14-C , 19-O ) :   0.8411 B( 14-C , 20-H ) :   0.9315 B( 15-C , 16-C ) :   0.9491
B( 15-C , 21-H ) :   0.9376 B( 15-C , 22-H ) :   0.9382 B( 16-C , 17-O ) :   0.8543
B( 16-C , 23-H ) :   0.9338 B( 16-C , 24-H ) :   0.9313

FINAL SINGLE POINT ENERGY      -538.428684029853

DIPOLE MOMENT
-------------
                                X             Y             Z
Electronic contribution:      0.81790      -2.97944      -1.01409
Nuclear contribution   :     -1.37510       3.69480       0.69432
                        -----------------------------------------
Total Dipole Moment    :     -0.55720       0.71537      -0.31977
                        -----------------------------------------
Magnitude (a.u.)       :      0.96150
Magnitude (Debye)      :      2.44393

Rotational constants in cm-1:     0.069538     0.025958     0.024250
Rotational constants in MHz :  2084.706818   778.207286   726.996879

                             ****ORCA TERMINATED NORMALLY****
TOTAL RUN TIME: 0 days 0 hours 8 minutes 28 seconds 256 msec
