                         Program Version 4.2.0 -  RELEASE  -
|  1> # Test redundant internal optimization
|  2> #
|  3> ! RKS B3LYP  Opt TightSCF SmallPrint
|  4>
|  5> %basis
|  6>         Basis "6-31G"
|  7> end
|  8>
|  9> %geom
| 10> Constraints
| 11> { D 4  0  15  12  210.0   C } # D for Dihedral angle
| 12> { D 0  15  12  16  300.0   C } # D for Dihedral angle
| 13> { D 0  4  3  2   C } # D for Dihedral angle
| 14> { D 4  3  2  1   C } # D for Dihedral angle
| 15> { D 3  2  1  0   C } # D for Dihedral angle
| 16> { D 2  1  0  4   C } # D for Dihedral angle
| 17> { D 1  0  4  3   C } # D for Dihedral angle
| 18> { D 16  20  19  18   C } # D for Dihedral angle
| 19> { D 20  19  18  17   C } # D for Dihedral angle
| 20> { D 19  18  17  16   C } # D for Dihedral angle
| 21> { D 18  17  16  20   C } # D for Dihedral angle
| 22> { D 17  16  20  19   C } # D for Dihedral angle
| 23> { D 15  12  16  20   C } # D for Dihedral angle
| 24> end
| 25> end
| 26>
| 27>
| 28> #%pal
| 29> #nprocs 8
| 30> #end
| 31>
| 32> * xyz 0 1
| 33> C  -21.048   26.222   46.251
| 34> C  -20.361   27.558   45.944
| 35> C  -20.329   28.222   47.341
| 36> C  -20.110   27.022   48.296
| 37> O  -20.473   25.807   47.535
| 38> H  -20.833   25.428   45.533
| 39> H  -19.344   27.382   45.576
| 40> H  -20.898   28.157   45.201
| 41> H  -19.543   28.978   47.434
| 42> H  -21.289   28.710   47.548
| 43> H  -20.733   27.082   49.195
| 44> H  -19.064   26.913   48.597
| 45> C  -23.389   26.110   45.076
| 46> H  -23.220   25.072   44.765
| 47> H  -24.464   26.245   45.252
| 48> O  -22.586   26.394   46.375
| 49> C  -22.982   27.044   43.902
| 50> C  -21.531   26.800   43.475
| 51> C  -21.669   25.522   42.613
| 52> C  -23.043   25.709   41.923
| 53> O  -23.769   26.733   42.704
| 54> H  -23.206   28.077   44.173
| 55> O  -21.022   27.989   42.614
| 56> H  -20.848   26.671   44.321
| 57> H  -20.853   25.405   41.893
| 58> H  -21.677   24.634   43.257
| 59> H  -23.633   24.787   41.906
| 60> H  -22.950   26.088   40.902
| 61> H  -21.692   28.137   41.758
| 62> *
| 63>
| 64>                          ****END OF INPUT****
 Total Charge           Charge          ....    0
 Multiplicity           Mult            ....    1
 Number of Electrons    NEL             ....  102
FINAL SINGLE POINT ENERGY      -652.806124551591
FINAL SINGLE POINT ENERGY      -652.835152440862
FINAL SINGLE POINT ENERGY      -652.850535425738
FINAL SINGLE POINT ENERGY      -652.852692768678
FINAL SINGLE POINT ENERGY      -652.853097587420
FINAL SINGLE POINT ENERGY      -652.853142928372
                    ***********************HURRAY********************

CARTESIAN COORDINATES (ANGSTROEM)
---------------------------------
  C    -20.905208   26.226532   46.309343
  C    -20.162020   27.553432   46.142369
  C    -20.359405   28.214521   47.534125
  C    -20.319917   27.001068   48.487616
  O    -20.566585   25.809772   47.640156
  H    -20.613079   25.418092   45.629923
  H    -19.099327   27.357766   45.952299
  H    -20.549457   28.179874   45.338130
  H    -19.585195   28.952987   47.760469
  H    -21.336129   28.704609   47.571286
  H    -21.087298   27.038741   49.265150
  H    -19.339492   26.856961   48.952091
  C    -23.142266   26.241767   45.076086
  H    -23.113766   25.174919   44.800546
  H    -24.160051   26.469468   45.397637
  O    -22.341698   26.436269   46.275527
  C    -22.861577   27.064993   43.800862
  C    -21.507918   26.863925   43.097623
  C    -21.724758   25.503405   42.367828
  C    -23.221816   25.568229   41.969758
  O    -23.843881   26.611524   42.811068
  H    -23.046309   28.128562   43.980287
  O    -21.256299   27.950558   42.164580
  H    -20.642243   26.849166   43.751066
  H    -21.056647   25.413989   41.508371
  H    -21.528185   24.670590   43.051128
  H    -23.746949   24.621712   42.130578
  H    -23.362681   25.869151   40.926451
  H    -22.078845   28.145420   41.667645

 Multiplicity           Mult            ....    1
 Number of Electrons    NEL             ....  102
 Basis Dimension        Dim             ....  149

ORBITAL ENERGIES
----------------

  NO   OCC          E(Eh)            E(eV)
   0   2.0000     -19.152934      -521.1778
   1   2.0000     -19.145711      -520.9813
   2   2.0000     -19.140629      -520.8430
   3   2.0000     -19.139825      -520.8211
   4   2.0000     -10.283565      -279.8300
   5   2.0000     -10.248546      -278.8771
   6   2.0000     -10.242050      -278.7004
   7   2.0000     -10.238529      -278.6045
   8   2.0000     -10.234536      -278.4959
   9   2.0000     -10.223927      -278.2072
  10   2.0000     -10.196403      -277.4582
  11   2.0000     -10.186382      -277.1856
  12   2.0000     -10.185401      -277.1589
  13   2.0000      -1.053788       -28.6750
  14   2.0000      -1.046039       -28.4642
  15   2.0000      -1.014766       -27.6132
  16   2.0000      -0.993202       -27.0264
  17   2.0000      -0.785886       -21.3851
  18   2.0000      -0.785657       -21.3788
  19   2.0000      -0.771929       -21.0053
  20   2.0000      -0.738331       -20.0910
  21   2.0000      -0.678597       -18.4656
  22   2.0000      -0.613724       -16.7003
  23   2.0000      -0.605534       -16.4774
  24   2.0000      -0.597581       -16.2610
  25   2.0000      -0.582548       -15.8519
  26   2.0000      -0.529022       -14.3954
  27   2.0000      -0.519896       -14.1471
  28   2.0000      -0.503558       -13.7025
  29   2.0000      -0.484865       -13.1939
  30   2.0000      -0.479120       -13.0375
  31   2.0000      -0.461150       -12.5485
  32   2.0000      -0.450182       -12.2501
  33   2.0000      -0.440657       -11.9909
  34   2.0000      -0.427395       -11.6300
  35   2.0000      -0.422441       -11.4952
  36   2.0000      -0.405946       -11.0464
  37   2.0000      -0.399613       -10.8740
  38   2.0000      -0.379373       -10.3233
  39   2.0000      -0.377783       -10.2800
  40   2.0000      -0.363908        -9.9024
  41   2.0000      -0.357344        -9.7238
  42   2.0000      -0.350925        -9.5491
  43   2.0000      -0.338566        -9.2128
  44   2.0000      -0.315864        -8.5951
  45   2.0000      -0.313195        -8.5225
  46   2.0000      -0.302930        -8.2431
  47   2.0000      -0.279139        -7.5958
  48   2.0000      -0.268495        -7.3061
  49   2.0000      -0.257245        -7.0000
  50   2.0000      -0.242284        -6.5929
  51   0.0000       0.059453         1.6178
  52   0.0000       0.065711         1.7881
  53   0.0000       0.083431         2.2703
  54   0.0000       0.093956         2.5567
  55   0.0000       0.099012         2.6943

MULLIKEN ATOMIC CHARGES
-----------------------
   0 C :    0.294211
   1 C :   -0.275552
   2 C :   -0.303247
   3 C :   -0.000912
   4 O :   -0.502995
   5 H :    0.134432
   6 H :    0.145719
   7 H :    0.162855
   8 H :    0.143130
   9 H :    0.163251
  10 H :    0.155208
  11 H :    0.141393
  12 C :   -0.002990
  13 H :    0.127023
  14 H :    0.173351
  15 O :   -0.516530
  16 C :    0.034984
  17 C :    0.073071
  18 C :   -0.299159
  19 C :   -0.028581
  20 O :   -0.521375
  21 H :    0.162810
  22 O :   -0.603743
  23 H :    0.164198
  24 H :    0.166056
  25 H :    0.147356
  26 H :    0.151549
  27 H :    0.148143
  28 H :    0.366344
Sum of atomic charges:   -0.0000000

LOEWDIN ATOMIC CHARGES
----------------------
   0 C :    0.177203
   1 C :   -0.234685
   2 C :   -0.215980
   3 C :   -0.025123
   4 O :   -0.304747
   5 H :    0.093152
   6 H :    0.114273
   7 H :    0.120723
   8 H :    0.115129
   9 H :    0.119515
  10 H :    0.109504
  11 H :    0.101973
  12 C :   -0.039623
  13 H :    0.092312
  14 H :    0.127611
  15 O :   -0.334533
  16 C :    0.002382
  17 C :    0.027289
  18 C :   -0.241120
  19 C :   -0.038455
  20 O :   -0.324195
  21 H :    0.115071
  22 O :   -0.413227
  23 H :    0.119195
  24 H :    0.128640
  25 H :    0.113670
  26 H :    0.106474
  27 H :    0.103521
  28 H :    0.284050

  Mayer bond orders larger than 0.100000
B(  0-C ,  1-C ) :   0.9265 B(  0-C ,  4-O ) :   0.9349 B(  0-C ,  5-H ) :   0.9168
B(  0-C , 15-O ) :   0.8284 B(  1-C ,  2-C ) :   0.9469 B(  1-C ,  6-H ) :   0.9329
B(  1-C ,  7-H ) :   0.9274 B(  2-C ,  3-C ) :   0.9541 B(  2-C ,  8-H ) :   0.9445
B(  2-C ,  9-H ) :   0.9434 B(  3-C ,  4-O ) :   0.8327 B(  3-C , 10-H ) :   0.9348
B(  3-C , 11-H ) :   0.9397 B( 12-C , 13-H ) :   0.9218 B( 12-C , 14-H ) :   0.9333
B( 12-C , 15-O ) :   0.8587 B( 12-C , 16-C ) :   0.8694 B( 16-C , 17-C ) :   0.9081
B( 16-C , 20-O ) :   0.8280 B( 16-C , 21-H ) :   0.9241 B( 17-C , 18-C ) :   0.9106
B( 17-C , 22-O ) :   0.8876 B( 17-C , 23-H ) :   0.9156 B( 18-C , 19-C ) :   0.9413
B( 18-C , 24-H ) :   0.9368 B( 18-C , 25-H ) :   0.9323 B( 19-C , 20-O ) :   0.8367
B( 19-C , 26-H ) :   0.9346 B( 19-C , 27-H ) :   0.9381 B( 22-O , 28-H ) :   0.7933

FINAL SINGLE POINT ENERGY      -652.853147140901

DIPOLE MOMENT
-------------
                                X             Y             Z
Electronic contribution:     -2.61326      -0.54328      -0.16854
Nuclear contribution   :      2.92451       0.60854      -0.37679
                        -----------------------------------------
Total Dipole Moment    :      0.31125       0.06526      -0.54533
                        -----------------------------------------
Magnitude (a.u.)       :      0.63128
Magnitude (Debye)      :      1.60459

Rotational constants in cm-1:     0.055896     0.014065     0.013002
Rotational constants in MHz :  1675.705905   421.645972   389.784343

                             ****ORCA TERMINATED NORMALLY****
TOTAL RUN TIME: 0 days 0 hours 38 minutes 2 seconds 39 msec
