                         Program Version 4.2.0 -  RELEASE  -
|  1> # Test redundant internal optimization
|  2> #
|  3> ! RKS B3LYP  Opt TightSCF SmallPrint
|  4>
|  5> %basis
|  6>         Basis "6-31G"
|  7> end
|  8>
|  9> %geom
| 10> Constraints
| 11> { D 4  0  15  12  0.0   C } # D for Dihedral angle
| 12> { D 0  15  12  16  150.0   C } # D for Dihedral angle
| 13> { D 0  4  3  2   C } # D for Dihedral angle
| 14> { D 4  3  2  1   C } # D for Dihedral angle
| 15> { D 3  2  1  0   C } # D for Dihedral angle
| 16> { D 2  1  0  4   C } # D for Dihedral angle
| 17> { D 1  0  4  3   C } # D for Dihedral angle
| 18> { D 16  20  19  18   C } # D for Dihedral angle
| 19> { D 20  19  18  17   C } # D for Dihedral angle
| 20> { D 19  18  17  16   C } # D for Dihedral angle
| 21> { D 18  17  16  20   C } # D for Dihedral angle
| 22> { D 17  16  20  19   C } # D for Dihedral angle
| 23> { D 15  12  16  20   C } # D for Dihedral angle
| 24> end
| 25> end
| 26>
| 27>
| 28> #%pal
| 29> #nprocs 8
| 30> #end
| 31>
| 32> * xyz 0 1
| 33> C  -21.048   26.222   46.251
| 34> C  -20.361   27.558   45.944
| 35> C  -20.329   28.222   47.341
| 36> C  -20.110   27.022   48.296
| 37> O  -20.473   25.807   47.535
| 38> H  -20.833   25.428   45.533
| 39> H  -19.344   27.382   45.576
| 40> H  -20.898   28.157   45.201
| 41> H  -19.543   28.978   47.434
| 42> H  -21.289   28.710   47.548
| 43> H  -20.733   27.082   49.195
| 44> H  -19.064   26.913   48.597
| 45> C  -23.172   26.101   47.783
| 46> H  -23.432   25.037   47.853
| 47> H  -22.431   26.324   48.562
| 48> O  -22.586   26.394   46.375
| 49> C  -24.445   26.937   48.090
| 50> C  -25.596   26.562   47.149
| 51> C  -26.114   25.253   47.792
| 52> C  -25.918   25.505   49.308
| 53> O  -24.956   26.621   49.428
| 54> H  -24.186   27.997   48.088
| 55> O  -26.693   27.662   47.186
| 56> H  -25.278   26.429   46.110
| 57> H  -27.156   25.038   47.536
| 58> H  -25.504   24.405   47.459
| 59> H  -25.518   24.629   49.830
| 60> H  -26.841   25.819   49.802
| 61> H  -27.029   27.813   48.219
| 62> *
| 63>
| 64>                          ****END OF INPUT****
 Total Charge           Charge          ....    0
 Multiplicity           Mult            ....    1
 Number of Electrons    NEL             ....  102
FINAL SINGLE POINT ENERGY      -652.834197216448
FINAL SINGLE POINT ENERGY      -652.857388374881
FINAL SINGLE POINT ENERGY      -652.861481035926
FINAL SINGLE POINT ENERGY      -652.862291571099
FINAL SINGLE POINT ENERGY      -652.862392215797
FINAL SINGLE POINT ENERGY      -652.862411447047
                    ***********************HURRAY********************

CARTESIAN COORDINATES (ANGSTROEM)
---------------------------------
  C    -21.151980   26.232214   46.370390
  C    -20.600485   27.605126   45.983509
  C    -20.367948   28.254915   47.368272
  C    -19.927744   27.063416   48.247072
  O    -20.361161   25.839748   47.511334
  H    -21.008249   25.454185   45.616690
  H    -19.654931   27.474515   45.444561
  H    -21.296305   28.164771   45.354767
  H    -19.613977   29.047502   47.339593
  H    -21.301315   28.691402   47.738375
  H    -20.385734   27.060137   49.239978
  H    -18.841487   26.990131   48.352613
  C    -23.125142   25.997360   47.937290
  H    -23.348068   24.924356   48.010263
  H    -22.420837   26.240058   48.735469
  O    -22.587008   26.306177   46.620144
  C    -24.388376   26.838296   48.105297
  C    -25.515306   26.532942   47.108787
  C    -26.152449   25.267638   47.734960
  C    -26.016786   25.517432   49.257530
  O    -24.983883   26.571389   49.420327
  H    -24.126542   27.900101   48.078075
  O    -26.461690   27.637820   47.045208
  H    -25.155697   26.390296   46.091473
  H    -27.190741   25.157292   47.412826
  H    -25.601807   24.372610   47.426052
  H    -25.703701   24.625869   49.809411
  H    -26.939625   25.899005   49.705583
  H    -26.651026   27.950297   47.955151

 Multiplicity           Mult            ....    1
 Number of Electrons    NEL             ....  102
 Basis Dimension        Dim             ....  149

ORBITAL ENERGIES
----------------

  NO   OCC          E(Eh)            E(eV)
   0   2.0000     -19.152853      -521.1756
   1   2.0000     -19.143034      -520.9084
   2   2.0000     -19.140898      -520.8503
   3   2.0000     -19.132797      -520.6299
   4   2.0000     -10.281685      -279.7789
   5   2.0000     -10.234524      -278.4956
   6   2.0000     -10.232443      -278.4389
   7   2.0000     -10.230125      -278.3759
   8   2.0000     -10.229609      -278.3618
   9   2.0000     -10.227687      -278.3095
  10   2.0000     -10.192920      -277.3635
  11   2.0000     -10.187612      -277.2190
  12   2.0000     -10.184698      -277.1397
  13   2.0000      -1.056759       -28.7559
  14   2.0000      -1.033660       -28.1273
  15   2.0000      -1.001757       -27.2592
  16   2.0000      -0.994663       -27.0662
  17   2.0000      -0.793215       -21.5845
  18   2.0000      -0.778226       -21.1766
  19   2.0000      -0.768041       -20.8995
  20   2.0000      -0.733116       -19.9491
  21   2.0000      -0.672537       -18.3007
  22   2.0000      -0.605822       -16.4853
  23   2.0000      -0.601699       -16.3731
  24   2.0000      -0.592877       -16.1330
  25   2.0000      -0.575952       -15.6725
  26   2.0000      -0.524884       -14.2828
  27   2.0000      -0.511709       -13.9243
  28   2.0000      -0.500812       -13.6278
  29   2.0000      -0.492214       -13.3938
  30   2.0000      -0.473810       -12.8930
  31   2.0000      -0.456060       -12.4100
  32   2.0000      -0.447437       -12.1754
  33   2.0000      -0.437092       -11.8939
  34   2.0000      -0.421659       -11.4739
  35   2.0000      -0.417106       -11.3500
  36   2.0000      -0.400807       -10.9065
  37   2.0000      -0.389830       -10.6078
  38   2.0000      -0.376860       -10.2549
  39   2.0000      -0.364874        -9.9287
  40   2.0000      -0.362612        -9.8672
  41   2.0000      -0.354095        -9.6354
  42   2.0000      -0.352514        -9.5924
  43   2.0000      -0.342708        -9.3256
  44   2.0000      -0.323576        -8.8050
  45   2.0000      -0.311616        -8.4795
  46   2.0000      -0.300726        -8.1832
  47   2.0000      -0.270642        -7.3646
  48   2.0000      -0.265781        -7.2323
  49   2.0000      -0.253539        -6.8992
  50   2.0000      -0.242399        -6.5960
  51   0.0000       0.067260         1.8302
  52   0.0000       0.067814         1.8453
  53   0.0000       0.094078         2.5600
  54   0.0000       0.097100         2.6422
  55   0.0000       0.101773         2.7694

MULLIKEN ATOMIC CHARGES
-----------------------
   0 C :    0.307498
   1 C :   -0.258875
   2 C :   -0.308356
   3 C :   -0.026282
   4 O :   -0.510464
   5 H :    0.156555
   6 H :    0.146174
   7 H :    0.162170
   8 H :    0.149643
   9 H :    0.156781
  10 H :    0.151156
  11 H :    0.154034
  12 C :    0.001294
  13 H :    0.133580
  14 H :    0.157244
  15 O :   -0.551283
  16 C :    0.059439
  17 C :    0.089626
  18 C :   -0.296148
  19 C :   -0.031489
  20 O :   -0.530418
  21 H :    0.156186
  22 O :   -0.604807
  23 H :    0.176734
  24 H :    0.159527
  25 H :    0.145899
  26 H :    0.148148
  27 H :    0.145254
  28 H :    0.361183
Sum of atomic charges:    0.0000000

LOEWDIN ATOMIC CHARGES
----------------------
   0 C :    0.184702
   1 C :   -0.220746
   2 C :   -0.219729
   3 C :   -0.034564
   4 O :   -0.317890
   5 H :    0.104580
   6 H :    0.114645
   7 H :    0.126412
   8 H :    0.118640
   9 H :    0.114718
  10 H :    0.104175
  11 H :    0.108291
  12 C :   -0.034189
  13 H :    0.095552
  14 H :    0.110636
  15 O :   -0.347816
  16 C :    0.015174
  17 C :    0.038288
  18 C :   -0.240472
  19 C :   -0.038223
  20 O :   -0.333583
  21 H :    0.112765
  22 O :   -0.416658
  23 H :    0.128231
  24 H :    0.125742
  25 H :    0.114646
  26 H :    0.104487
  27 H :    0.101719
  28 H :    0.280465

  Mayer bond orders larger than 0.100000
B(  0-C ,  1-C ) :   0.9315 B(  0-C ,  4-O ) :   0.9167 B(  0-C ,  5-H ) :   0.9298
B(  0-C , 15-O ) :   0.8335 B(  1-C ,  2-C ) :   0.9532 B(  1-C ,  6-H ) :   0.9351
B(  1-C ,  7-H ) :   0.9357 B(  2-C ,  3-C ) :   0.9524 B(  2-C ,  8-H ) :   0.9443
B(  2-C ,  9-H ) :   0.9441 B(  3-C ,  4-O ) :   0.8286 B(  3-C , 10-H ) :   0.9291
B(  3-C , 11-H ) :   0.9398 B( 12-C , 13-H ) :   0.9265 B( 12-C , 14-H ) :   0.9106
B( 12-C , 15-O ) :   0.8153 B( 12-C , 16-C ) :   0.8967 B( 16-C , 17-C ) :   0.9131
B( 16-C , 20-O ) :   0.8440 B( 16-C , 21-H ) :   0.9253 B( 17-C , 18-C ) :   0.9139
B( 17-C , 22-O ) :   0.8895 B( 17-C , 23-H ) :   0.9240 B( 18-C , 19-C ) :   0.9405
B( 18-C , 24-H ) :   0.9386 B( 18-C , 25-H ) :   0.9352 B( 19-C , 20-O ) :   0.8425
B( 19-C , 26-H ) :   0.9354 B( 19-C , 27-H ) :   0.9381 B( 22-O , 28-H ) :   0.7966

FINAL SINGLE POINT ENERGY      -652.862414005912

DIPOLE MOMENT
-------------
                                X             Y             Z
Electronic contribution:     -1.68860      -0.74441      -0.39371
Nuclear contribution   :      2.20434       0.78069       0.63600
                        -----------------------------------------
Total Dipole Moment    :      0.51574       0.03628       0.24229
                        -----------------------------------------
Magnitude (a.u.)       :      0.57097
Magnitude (Debye)      :      1.45130

Rotational constants in cm-1:     0.055597     0.013121     0.012481
Rotational constants in MHz :  1666.742067   393.369033   374.183692

                             ****ORCA TERMINATED NORMALLY****
TOTAL RUN TIME: 0 days 1 hours 43 minutes 19 seconds 253 msec
