                         Program Version 4.2.0 -  RELEASE  -
|  1> # Test redundant internal optimization
|  2> #
|  3> ! RKS B3LYP  Opt TightSCF SmallPrint
|  4>
|  5> %basis
|  6>         Basis "6-31G"
|  7> end
|  8>
|  9> %geom
| 10> Constraints
| 11> { D 4  0  15  12  180.0   C } # D for Dihedral angle
| 12> { D 0  15  12  16  150.0   C } # D for Dihedral angle
| 13> { D 0  4  3  2   C } # D for Dihedral angle
| 14> { D 4  3  2  1   C } # D for Dihedral angle
| 15> { D 3  2  1  0   C } # D for Dihedral angle
| 16> { D 2  1  0  4   C } # D for Dihedral angle
| 17> { D 1  0  4  3   C } # D for Dihedral angle
| 18> { D 16  20  19  18   C } # D for Dihedral angle
| 19> { D 20  19  18  17   C } # D for Dihedral angle
| 20> { D 19  18  17  16   C } # D for Dihedral angle
| 21> { D 18  17  16  20   C } # D for Dihedral angle
| 22> { D 17  16  20  19   C } # D for Dihedral angle
| 23> { D 15  12  16  20   C } # D for Dihedral angle
| 24> end
| 25> end
| 26>
| 27>
| 28> #%pal
| 29> #nprocs 8
| 30> #end
| 31>
| 32> * xyz 0 1
| 33> C  -21.048   26.222   46.251
| 34> C  -20.361   27.558   45.944
| 35> C  -20.329   28.222   47.341
| 36> C  -20.110   27.022   48.296
| 37> O  -20.473   25.807   47.535
| 38> H  -20.833   25.428   45.533
| 39> H  -19.344   27.382   45.576
| 40> H  -20.898   28.157   45.201
| 41> H  -19.543   28.978   47.434
| 42> H  -21.289   28.710   47.548
| 43> H  -20.733   27.082   49.195
| 44> H  -19.064   26.913   48.597
| 45> C  -23.309   26.834   45.072
| 46> H  -23.337   27.929   45.026
| 47> H  -22.767   26.467   44.190
| 48> O  -22.586   26.394   46.375
| 49> C  -24.767   26.303   44.986
| 50> C  -25.409   26.657   43.640
| 51> C  -24.799   25.582   42.709
| 52> C  -24.694   24.340   43.628
| 53> O  -24.781   24.837   45.018
| 54> H  -25.325   26.649   45.858
| 55> O  -26.951   26.496   43.726
| 56> H  -25.186   27.679   43.312
| 57> H  -25.410   25.393   41.821
| 58> H  -23.805   25.897   42.371
| 59> H  -23.748   23.801   43.499
| 60> H  -25.522   23.641   43.483
| 61> H  -27.198   25.480   44.053
| 62> *
| 63>
| 64>                          ****END OF INPUT****
 Total Charge           Charge          ....    0
 Multiplicity           Mult            ....    1
 Number of Electrons    NEL             ....  102
FINAL SINGLE POINT ENERGY      -652.828506141896
FINAL SINGLE POINT ENERGY      -652.851919345932
FINAL SINGLE POINT ENERGY      -652.855793898470
FINAL SINGLE POINT ENERGY      -652.856492611152
FINAL SINGLE POINT ENERGY      -652.856587127767
FINAL SINGLE POINT ENERGY      -652.856597367185
                    ***********************HURRAY********************

CARTESIAN COORDINATES (ANGSTROEM)
---------------------------------
  C    -21.079863   26.248187   46.155670
  C    -20.348205   27.571337   45.939496
  C    -20.432759   28.220528   47.343881
  C    -20.323416   27.004757   48.286943
  O    -20.642037   25.818721   47.449265
  H    -20.839457   25.455035   45.439396
  H    -19.306423   27.363589   45.667931
  H    -20.785980   28.193423   45.153600
  H    -19.640614   28.955615   47.514205
  H    -21.399521   28.718292   47.466040
  H    -21.027884   27.039718   49.121303
  H    -19.310407   26.852379   48.670674
  C    -23.165298   26.852765   44.993436
  H    -23.209011   27.951021   44.946594
  H    -22.596730   26.496142   44.119866
  O    -22.526795   26.416902   46.219233
  C    -24.581837   26.282916   44.965989
  C    -25.375438   26.628255   43.698286
  C    -24.873998   25.545625   42.706832
  C    -24.663149   24.310326   43.616494
  O    -24.590725   24.819765   45.007081
  H    -25.106176   26.615590   45.867122
  O    -26.805544   26.519120   43.936028
  H    -25.220951   27.646951   43.338938
  H    -25.609056   25.375917   41.916383
  H    -23.934875   25.864453   42.240786
  H    -23.741847   23.765463   43.387009
  H    -25.501524   23.607512   43.572542
  H    -26.979479   25.719694   44.476979

 Multiplicity           Mult            ....    1
 Number of Electrons    NEL             ....  102
 Basis Dimension        Dim             ....  149

ORBITAL ENERGIES
----------------

  NO   OCC          E(Eh)            E(eV)
   0   2.0000     -19.140620      -520.8428
   1   2.0000     -19.139847      -520.8217
   2   2.0000     -19.139363      -520.8085
   3   2.0000     -19.138780      -520.7927
   4   2.0000     -10.279073      -279.7078
   5   2.0000     -10.244817      -278.7756
   6   2.0000     -10.236276      -278.5432
   7   2.0000     -10.234750      -278.5017
   8   2.0000     -10.230825      -278.3949
   9   2.0000     -10.224433      -278.2210
  10   2.0000     -10.191343      -277.3205
  11   2.0000     -10.188916      -277.2545
  12   2.0000     -10.187994      -277.2294
  13   2.0000      -1.053787       -28.6750
  14   2.0000      -1.036907       -28.2157
  15   2.0000      -1.007360       -27.4117
  16   2.0000      -0.993158       -27.0252
  17   2.0000      -0.788546       -21.4574
  18   2.0000      -0.784851       -21.3569
  19   2.0000      -0.769263       -20.9327
  20   2.0000      -0.731730       -19.9114
  21   2.0000      -0.677496       -18.4356
  22   2.0000      -0.605504       -16.4766
  23   2.0000      -0.602960       -16.4074
  24   2.0000      -0.591801       -16.1037
  25   2.0000      -0.583296       -15.8723
  26   2.0000      -0.527285       -14.3481
  27   2.0000      -0.510082       -13.8800
  28   2.0000      -0.496309       -13.5053
  29   2.0000      -0.492451       -13.4003
  30   2.0000      -0.478083       -13.0093
  31   2.0000      -0.461428       -12.5561
  32   2.0000      -0.452415       -12.3108
  33   2.0000      -0.448067       -12.1925
  34   2.0000      -0.421765       -11.4768
  35   2.0000      -0.414028       -11.2663
  36   2.0000      -0.399167       -10.8619
  37   2.0000      -0.395027       -10.7492
  38   2.0000      -0.375766       -10.2251
  39   2.0000      -0.373416       -10.1612
  40   2.0000      -0.366200        -9.9648
  41   2.0000      -0.357789        -9.7359
  42   2.0000      -0.352756        -9.5990
  43   2.0000      -0.333834        -9.0841
  44   2.0000      -0.313233        -8.5235
  45   2.0000      -0.306753        -8.3472
  46   2.0000      -0.302127        -8.2213
  47   2.0000      -0.272428        -7.4131
  48   2.0000      -0.258634        -7.0378
  49   2.0000      -0.253854        -6.9077
  50   2.0000      -0.242911        -6.6099
  51   0.0000       0.062196         1.6924
  52   0.0000       0.080019         2.1774
  53   0.0000       0.084232         2.2921
  54   0.0000       0.097957         2.6655
  55   0.0000       0.107386         2.9221

MULLIKEN ATOMIC CHARGES
-----------------------
   0 C :    0.306704
   1 C :   -0.282066
   2 C :   -0.298332
   3 C :   -0.000496
   4 O :   -0.499786
   5 H :    0.142790
   6 H :    0.147509
   7 H :    0.140150
   8 H :    0.142800
   9 H :    0.158099
  10 H :    0.156866
  11 H :    0.141814
  12 C :   -0.008790
  13 H :    0.130698
  14 H :    0.118630
  15 O :   -0.497665
  16 C :    0.071016
  17 C :    0.077345
  18 C :   -0.293238
  19 C :   -0.031927
  20 O :   -0.506073
  21 H :    0.173013
  22 O :   -0.602293
  23 H :    0.147630
  24 H :    0.164268
  25 H :    0.139030
  26 H :    0.147028
  27 H :    0.148085
  28 H :    0.367189
Sum of atomic charges:   -0.0000000

LOEWDIN ATOMIC CHARGES
----------------------
   0 C :    0.182126
   1 C :   -0.234249
   2 C :   -0.216902
   3 C :   -0.024536
   4 O :   -0.299385
   5 H :    0.097757
   6 H :    0.115672
   7 H :    0.111933
   8 H :    0.114622
   9 H :    0.116734
  10 H :    0.110840
  11 H :    0.102577
  12 C :   -0.045001
  13 H :    0.094739
  14 H :    0.089630
  15 O :   -0.324092
  16 C :    0.017844
  17 C :    0.035286
  18 C :   -0.241180
  19 C :   -0.039460
  20 O :   -0.316980
  21 H :    0.122578
  22 O :   -0.414147
  23 H :    0.113325
  24 H :    0.127373
  25 H :    0.110209
  26 H :    0.104421
  27 H :    0.103421
  28 H :    0.284846

  Mayer bond orders larger than 0.100000
B(  0-C ,  1-C ) :   0.9250 B(  0-C ,  4-O ) :   0.9424 B(  0-C ,  5-H ) :   0.9191
B(  0-C , 15-O ) :   0.8341 B(  1-C ,  2-C ) :   0.9519 B(  1-C ,  6-H ) :   0.9340
B(  1-C ,  7-H ) :   0.9330 B(  2-C ,  3-C ) :   0.9557 B(  2-C ,  8-H ) :   0.9451
B(  2-C ,  9-H ) :   0.9450 B(  3-C ,  4-O ) :   0.8354 B(  3-C , 10-H ) :   0.9340
B(  3-C , 11-H ) :   0.9397 B( 12-C , 13-H ) :   0.9095 B( 12-C , 14-H ) :   0.9146
B( 12-C , 15-O ) :   0.8524 B( 12-C , 16-C ) :   0.8929 B( 16-C , 17-C ) :   0.8984
B( 16-C , 20-O ) :   0.8686 B( 16-C , 21-H ) :   0.9231 B( 17-C , 18-C ) :   0.9101
B( 17-C , 22-O ) :   0.8957 B( 17-C , 23-H ) :   0.9340 B( 18-C , 19-C ) :   0.9389
B( 18-C , 24-H ) :   0.9375 B( 18-C , 25-H ) :   0.9347 B( 19-C , 20-O ) :   0.8524
B( 19-C , 26-H ) :   0.9343 B( 19-C , 27-H ) :   0.9377 B( 22-O , 28-H ) :   0.7927

FINAL SINGLE POINT ENERGY      -652.856600125608

DIPOLE MOMENT
-------------
                                X             Y             Z
Electronic contribution:     -3.59917      -3.47699       2.43086
Nuclear contribution   :      4.42434       4.30247      -3.42382
                        -----------------------------------------
Total Dipole Moment    :      0.82517       0.82549      -0.99296
                        -----------------------------------------
Magnitude (a.u.)       :      1.53242
Magnitude (Debye)      :      3.89510

Rotational constants in cm-1:     0.067037     0.011331     0.010937
Rotational constants in MHz :  2009.714811   339.692096   327.879204

                             ****ORCA TERMINATED NORMALLY****
TOTAL RUN TIME: 0 days 1 hours 7 minutes 47 seconds 625 msec
