                         Program Version 4.2.0 -  RELEASE  -
|  1> # Test redundant internal optimization
|  2> #
|  3> ! RKS B3LYP  Opt TightSCF SmallPrint
|  4>
|  5> %basis
|  6>         Basis "6-31G"
|  7> end
|  8>
|  9> %geom
| 10> Constraints
| 11> { D 4  0  15  12  345.0   C } # D for Dihedral angle
| 12> { D 0  15  12  16  255.0   C } # D for Dihedral angle
| 13> { D 0  4  3  2   C } # D for Dihedral angle
| 14> { D 4  3  2  1   C } # D for Dihedral angle
| 15> { D 3  2  1  0   C } # D for Dihedral angle
| 16> { D 2  1  0  4   C } # D for Dihedral angle
| 17> { D 1  0  4  3   C } # D for Dihedral angle
| 18> { D 16  20  19  18   C } # D for Dihedral angle
| 19> { D 20  19  18  17   C } # D for Dihedral angle
| 20> { D 19  18  17  16   C } # D for Dihedral angle
| 21> { D 18  17  16  20   C } # D for Dihedral angle
| 22> { D 17  16  20  19   C } # D for Dihedral angle
| 23> { D 15  12  16  20   C } # D for Dihedral angle
| 24> end
| 25> end
| 26>
| 27>
| 28> #%pal
| 29> #nprocs 8
| 30> #end
| 31>
| 32> * xyz 0 1
| 33> C  -21.048   26.222   46.251
| 34> C  -20.361   27.558   45.944
| 35> C  -20.329   28.222   47.341
| 36> C  -20.110   27.022   48.296
| 37> O  -20.473   25.807   47.535
| 38> H  -20.833   25.428   45.533
| 39> H  -19.344   27.382   45.576
| 40> H  -20.898   28.157   45.201
| 41> H  -19.543   28.978   47.434
| 42> H  -21.289   28.710   47.548
| 43> H  -20.733   27.082   49.195
| 44> H  -19.064   26.913   48.597
| 45> C  -23.221   25.764   47.645
| 46> H  -22.430   25.543   48.373
| 47> H  -23.928   26.464   48.109
| 48> O  -22.586   26.394   46.375
| 49> C  -23.989   24.448   47.343
| 50> C  -25.056   24.661   46.262
| 51> C  -24.202   24.640   44.972
| 52> C  -23.100   23.600   45.295
| 53> O  -23.085   23.448   46.766
| 54> H  -24.370   24.033   48.278
| 55> H  -25.768   23.829   46.268
| 56> O  -25.847   25.985   46.439
| 57> H  -24.782   24.371   44.083
| 58> H  -23.761   25.629   44.796
| 59> H  -22.109   23.920   44.957
| 60> H  -23.318   22.616   44.872
| 61> H  -25.153   26.833   46.436
| 62> *
| 63>
| 64>                          ****END OF INPUT****
 Total Charge           Charge          ....    0
 Multiplicity           Mult            ....    1
 Number of Electrons    NEL             ....  102
FINAL SINGLE POINT ENERGY      -652.831759254920
FINAL SINGLE POINT ENERGY      -652.855050183640
FINAL SINGLE POINT ENERGY      -652.859757708111
FINAL SINGLE POINT ENERGY      -652.861992737143
FINAL SINGLE POINT ENERGY      -652.862174954036
FINAL SINGLE POINT ENERGY      -652.862213392267
FINAL SINGLE POINT ENERGY      -652.862215188374
                    ***********************HURRAY********************

CARTESIAN COORDINATES (ANGSTROEM)
---------------------------------
  C    -21.024372   26.261276   46.332517
  C    -20.421179   27.632765   46.033004
  C    -20.315699   28.247483   47.447471
  C    -19.978163   27.033044   48.336910
  O    -20.354525   25.831740   47.532800
  H    -20.829946   25.489114   45.585123
  H    -19.430331   27.500410   45.583283
  H    -21.045744   28.218125   45.354705
  H    -19.554256   29.030892   47.509802
  H    -21.278002   28.683543   47.733623
  H    -20.535109   27.013683   49.277254
  H    -18.909601   26.937714   48.547254
  C    -23.151236   25.811955   47.622380
  H    -22.409943   25.571554   48.388260
  H    -23.846610   26.566671   48.005746
  O    -22.475943   26.404149   46.469399
  C    -23.928699   24.540492   47.283215
  C    -25.052581   24.708695   46.244261
  C    -24.275282   24.546657   44.901680
  C    -23.203175   23.495034   45.257139
  O    -23.108110   23.466337   46.738790
  H    -24.332819   24.162221   48.230978
  H    -25.797223   23.919566   46.368571
  O    -25.796156   25.945789   46.357487
  H    -24.927144   24.227044   44.083569
  H    -23.815980   25.504236   44.644126
  H    -22.218744   23.731491   44.841129
  H    -23.484967   22.486121   44.939875
  H    -25.228460   26.691197   46.069649

 Multiplicity           Mult            ....    1
 Number of Electrons    NEL             ....  102
 Basis Dimension        Dim             ....  149

ORBITAL ENERGIES
----------------

  NO   OCC          E(Eh)            E(eV)
   0   2.0000     -19.153482      -521.1927
   1   2.0000     -19.144286      -520.9425
   2   2.0000     -19.136638      -520.7344
   3   2.0000     -19.131748      -520.6013
   4   2.0000     -10.283302      -279.8229
   5   2.0000     -10.234497      -278.4948
   6   2.0000     -10.232686      -278.4455
   7   2.0000     -10.223834      -278.2047
   8   2.0000     -10.223462      -278.1945
   9   2.0000     -10.221519      -278.1417
  10   2.0000     -10.193207      -277.3713
  11   2.0000     -10.189863      -277.2803
  12   2.0000     -10.177730      -276.9501
  13   2.0000      -1.058058       -28.7912
  14   2.0000      -1.024335       -27.8736
  15   2.0000      -1.006756       -27.3952
  16   2.0000      -0.992902       -27.0182
  17   2.0000      -0.794609       -21.6224
  18   2.0000      -0.769713       -20.9450
  19   2.0000      -0.764424       -20.8010
  20   2.0000      -0.734420       -19.9846
  21   2.0000      -0.674486       -18.3537
  22   2.0000      -0.606946       -16.5159
  23   2.0000      -0.599455       -16.3120
  24   2.0000      -0.599116       -16.3028
  25   2.0000      -0.559244       -15.2178
  26   2.0000      -0.528304       -14.3759
  27   2.0000      -0.508987       -13.8503
  28   2.0000      -0.495583       -13.4855
  29   2.0000      -0.489891       -13.3306
  30   2.0000      -0.468884       -12.7590
  31   2.0000      -0.462115       -12.5748
  32   2.0000      -0.436474       -11.8771
  33   2.0000      -0.432761       -11.7760
  34   2.0000      -0.422395       -11.4940
  35   2.0000      -0.413948       -11.2641
  36   2.0000      -0.401299       -10.9199
  37   2.0000      -0.389398       -10.5961
  38   2.0000      -0.377187       -10.2638
  39   2.0000      -0.372448       -10.1348
  40   2.0000      -0.363194        -9.8830
  41   2.0000      -0.355049        -9.6614
  42   2.0000      -0.348001        -9.4696
  43   2.0000      -0.334414        -9.0999
  44   2.0000      -0.322269        -8.7694
  45   2.0000      -0.307109        -8.3569
  46   2.0000      -0.300068        -8.1653
  47   2.0000      -0.269571        -7.3354
  48   2.0000      -0.265601        -7.2274
  49   2.0000      -0.256774        -6.9872
  50   2.0000      -0.231760        -6.3065
  51   0.0000       0.068643         1.8679
  52   0.0000       0.080874         2.2007
  53   0.0000       0.091810         2.4983
  54   0.0000       0.098864         2.6902
  55   0.0000       0.105291         2.8651

MULLIKEN ATOMIC CHARGES
-----------------------
   0 C :    0.307309
   1 C :   -0.259515
   2 C :   -0.303326
   3 C :   -0.018066
   4 O :   -0.502350
   5 H :    0.156880
   6 H :    0.146398
   7 H :    0.156507
   8 H :    0.147983
   9 H :    0.156167
  10 H :    0.147085
  11 H :    0.153328
  12 C :   -0.048025
  13 H :    0.177416
  14 H :    0.143161
  15 O :   -0.555012
  16 C :    0.100744
  17 C :    0.087569
  18 C :   -0.309449
  19 C :   -0.004371
  20 O :   -0.518273
  21 H :    0.142418
  22 H :    0.160218
  23 O :   -0.608740
  24 H :    0.143093
  25 H :    0.157582
  26 H :    0.135942
  27 H :    0.141932
  28 H :    0.365393
Sum of atomic charges:   -0.0000000

LOEWDIN ATOMIC CHARGES
----------------------
   0 C :    0.184915
   1 C :   -0.219104
   2 C :   -0.218031
   3 C :   -0.031514
   4 O :   -0.309871
   5 H :    0.101828
   6 H :    0.114541
   7 H :    0.123824
   8 H :    0.117474
   9 H :    0.115814
  10 H :    0.104218
  11 H :    0.108594
  12 C :   -0.056583
  13 H :    0.121953
  14 H :    0.107039
  15 O :   -0.354395
  16 C :    0.012362
  17 C :    0.036070
  18 C :   -0.242436
  19 C :   -0.025159
  20 O :   -0.321054
  21 H :    0.111850
  22 H :    0.115372
  23 O :   -0.412071
  24 H :    0.114700
  25 H :    0.118303
  26 H :    0.097022
  27 H :    0.101353
  28 H :    0.282989

  Mayer bond orders larger than 0.100000
B(  0-C ,  1-C ) :   0.9362 B(  0-C ,  4-O ) :   0.9207 B(  0-C ,  5-H ) :   0.9202
B(  0-C , 15-O ) :   0.8233 B(  1-C ,  2-C ) :   0.9535 B(  1-C ,  6-H ) :   0.9358
B(  1-C ,  7-H ) :   0.9362 B(  2-C ,  3-C ) :   0.9535 B(  2-C ,  8-H ) :   0.9447
B(  2-C ,  9-H ) :   0.9455 B(  3-C ,  4-O ) :   0.8285 B(  3-C , 10-H ) :   0.9336
B(  3-C , 11-H ) :   0.9404 B( 12-C , 13-H ) :   0.9072 B( 12-C , 14-H ) :   0.9185
B( 12-C , 15-O ) :   0.8435 B( 12-C , 16-C ) :   0.8969 B( 16-C , 17-C ) :   0.8875
B( 16-C , 20-O ) :   0.8782 B( 16-C , 21-H ) :   0.9242 B( 17-C , 18-C ) :   0.9317
B( 17-C , 22-H ) :   0.9365 B( 17-C , 23-O ) :   0.9010 B( 18-C , 19-C ) :   0.9430
B( 18-C , 24-H ) :   0.9415 B( 18-C , 25-H ) :   0.9292 B( 19-C , 20-O ) :   0.8420
B( 19-C , 26-H ) :   0.9279 B( 19-C , 27-H ) :   0.9385 B( 23-O , 28-H ) :   0.7926

FINAL SINGLE POINT ENERGY      -652.862213543227

DIPOLE MOMENT
-------------
                                X             Y             Z
Electronic contribution:     -2.36011      -3.37598       1.01534
Nuclear contribution   :      3.11037       4.40610      -1.31548
                        -----------------------------------------
Total Dipole Moment    :      0.75026       1.03011      -0.30013
                        -----------------------------------------
Magnitude (a.u.)       :      1.30924
Magnitude (Debye)      :      3.32782

Rotational constants in cm-1:     0.050765     0.015767     0.014855
Rotational constants in MHz :  1521.891152   472.686674   445.337006

                             ****ORCA TERMINATED NORMALLY****
TOTAL RUN TIME: 0 days 0 hours 37 minutes 26 seconds 662 msec
