                         Program Version 4.2.0 -  RELEASE  -
|  1> # Test redundant internal optimization
|  2> #
|  3> ! RKS B3LYP  Opt TightSCF SmallPrint
|  4>
|  5> %basis
|  6>         Basis "6-31G"
|  7> end
|  8>
|  9> %geom
| 10> Constraints
| 11> { D 4  0  15  12  315.0   C } # D for Dihedral angle
| 12> { D 0  15  12  16  180.0   C } # D for Dihedral angle
| 13> { D 0  4  3  2   C } # D for Dihedral angle
| 14> { D 4  3  2  1   C } # D for Dihedral angle
| 15> { D 3  2  1  0   C } # D for Dihedral angle
| 16> { D 2  1  0  4   C } # D for Dihedral angle
| 17> { D 1  0  4  3   C } # D for Dihedral angle
| 18> { D 16  20  19  18   C } # D for Dihedral angle
| 19> { D 20  19  18  17   C } # D for Dihedral angle
| 20> { D 19  18  17  16   C } # D for Dihedral angle
| 21> { D 18  17  16  20   C } # D for Dihedral angle
| 22> { D 17  16  20  19   C } # D for Dihedral angle
| 23> { D 15  12  16  20   C } # D for Dihedral angle
| 24> end
| 25> end
| 26>
| 27>
| 28> #%pal
| 29> #nprocs 8
| 30> #end
| 31>
| 32> * xyz 0 1
| 33> C  -21.048   26.222   46.251
| 34> C  -20.361   27.558   45.944
| 35> C  -20.329   28.222   47.341
| 36> C  -20.110   27.022   48.296
| 37> O  -20.473   25.807   47.535
| 38> H  -20.833   25.428   45.533
| 39> H  -19.344   27.382   45.576
| 40> H  -20.898   28.157   45.201
| 41> H  -19.543   28.978   47.434
| 42> H  -21.289   28.710   47.548
| 43> H  -20.733   27.082   49.195
| 44> H  -19.064   26.913   48.597
| 45> C  -23.319   25.255   47.135
| 46> H  -23.142   24.303   46.618
| 47> H  -22.933   25.166   48.159
| 48> O  -22.586   26.394   46.375
| 49> C  -24.853   25.483   47.226
| 50> C  -25.527   24.403   48.079
| 51> C  -25.213   24.895   49.512
| 52> C  -25.269   26.437   49.375
| 53> O  -25.144   26.735   47.933
| 54> H  -25.260   25.583   46.218
| 55> H  -26.608   24.401   47.899
| 56> O  -24.982   22.976   47.799
| 57> H  -25.922   24.516   50.256
| 58> H  -24.210   24.570   49.811
| 59> H  -24.458   26.935   49.917
| 60> H  -26.225   26.851   49.709
| 61> H  -23.901   22.953   47.974
| 62> *
| 63>
| 64>                          ****END OF INPUT****
 Total Charge           Charge          ....    0
 Multiplicity           Mult            ....    1
 Number of Electrons    NEL             ....  102
FINAL SINGLE POINT ENERGY      -652.831340769413
FINAL SINGLE POINT ENERGY      -652.856308578873
FINAL SINGLE POINT ENERGY      -652.861158274426
FINAL SINGLE POINT ENERGY      -652.861964114061
FINAL SINGLE POINT ENERGY      -652.862094468090
FINAL SINGLE POINT ENERGY      -652.862113950467
FINAL SINGLE POINT ENERGY      -652.862116003015
                    ***********************HURRAY********************

CARTESIAN COORDINATES (ANGSTROEM)
---------------------------------
  C    -21.084630   26.178519   46.266877
  C    -20.542647   27.576148   45.968099
  C    -20.476584   28.194530   47.380912
  C    -20.090057   26.998240   48.277349
  O    -20.400514   25.777782   47.481430
  H    -20.854536   25.401241   45.529189
  H    -19.545750   27.489696   45.521132
  H    -21.194220   28.129004   45.288250
  H    -19.753514   29.013233   47.449066
  H    -21.463860   28.576679   47.655024
  H    -20.654396   26.962935   49.213056
  H    -19.019714   26.958114   48.500235
  C    -23.145875   25.204701   47.162402
  H    -22.995578   24.252274   46.630467
  H    -22.692703   25.118874   48.156956
  O    -22.513167   26.292536   46.437208
  C    -24.638221   25.507383   47.235561
  C    -25.442429   24.458516   48.022391
  C    -25.230830   24.931603   49.492356
  C    -25.196297   26.468921   49.354209
  O    -24.927569   26.763270   47.923637
  H    -25.012926   25.636661   46.216359
  H    -26.496716   24.530064   47.747254
  O    -25.093365   23.077521   47.765203
  H    -26.023795   24.579925   50.157742
  H    -24.276070   24.539953   49.867202
  H    -24.418485   26.934617   49.967923
  H    -26.158594   26.928163   49.599783
  H    -24.233958   22.855897   48.178728

 Multiplicity           Mult            ....    1
 Number of Electrons    NEL             ....  102
 Basis Dimension        Dim             ....  149

ORBITAL ENERGIES
----------------

  NO   OCC          E(Eh)            E(eV)
   0   2.0000     -19.148804      -521.0654
   1   2.0000     -19.142976      -520.9069
   2   2.0000     -19.139841      -520.8215
   3   2.0000     -19.134940      -520.6882
   4   2.0000     -10.275886      -279.6211
   5   2.0000     -10.243596      -278.7424
   6   2.0000     -10.228904      -278.3426
   7   2.0000     -10.228080      -278.3202
   8   2.0000     -10.226452      -278.2759
   9   2.0000     -10.224691      -278.2280
  10   2.0000     -10.193921      -277.3907
  11   2.0000     -10.182623      -277.0833
  12   2.0000     -10.182389      -277.0769
  13   2.0000      -1.054135       -28.6845
  14   2.0000      -1.031927       -28.0802
  15   2.0000      -1.013682       -27.5837
  16   2.0000      -0.991091       -26.9690
  17   2.0000      -0.788349       -21.4521
  18   2.0000      -0.780271       -21.2323
  19   2.0000      -0.765508       -20.8305
  20   2.0000      -0.728928       -19.8351
  21   2.0000      -0.676736       -18.4149
  22   2.0000      -0.609936       -16.5972
  23   2.0000      -0.598447       -16.2846
  24   2.0000      -0.587631       -15.9903
  25   2.0000      -0.572545       -15.5798
  26   2.0000      -0.530172       -14.4267
  27   2.0000      -0.508915       -13.8483
  28   2.0000      -0.493919       -13.4402
  29   2.0000      -0.490318       -13.3422
  30   2.0000      -0.470794       -12.8109
  31   2.0000      -0.456518       -12.4225
  32   2.0000      -0.442366       -12.0374
  33   2.0000      -0.434795       -11.8314
  34   2.0000      -0.426040       -11.5931
  35   2.0000      -0.410779       -11.1779
  36   2.0000      -0.401411       -10.9229
  37   2.0000      -0.399227       -10.8635
  38   2.0000      -0.376992       -10.2585
  39   2.0000      -0.369230       -10.0473
  40   2.0000      -0.357049        -9.7158
  41   2.0000      -0.352646        -9.5960
  42   2.0000      -0.344796        -9.3824
  43   2.0000      -0.335809        -9.1378
  44   2.0000      -0.323400        -8.8002
  45   2.0000      -0.312858        -8.5133
  46   2.0000      -0.297560        -8.0970
  47   2.0000      -0.270099        -7.3498
  48   2.0000      -0.259118        -7.0510
  49   2.0000      -0.255073        -6.9409
  50   2.0000      -0.241024        -6.5586
  51   0.0000       0.052925         1.4402
  52   0.0000       0.072027         1.9599
  53   0.0000       0.092197         2.5088
  54   0.0000       0.098830         2.6893
  55   0.0000       0.103966         2.8291

MULLIKEN ATOMIC CHARGES
-----------------------
   0 C :    0.294361
   1 C :   -0.262542
   2 C :   -0.300492
   3 C :   -0.009919
   4 O :   -0.519073
   5 H :    0.143605
   6 H :    0.142805
   7 H :    0.164329
   8 H :    0.140439
   9 H :    0.172603
  10 H :    0.141234
  11 H :    0.145019
  12 C :   -0.003792
  13 H :    0.127817
  14 H :    0.141193
  15 O :   -0.520377
  16 C :    0.089448
  17 C :    0.084464
  18 C :   -0.321295
  19 C :   -0.009302
  20 O :   -0.506178
  21 H :    0.162772
  22 H :    0.167313
  23 O :   -0.600878
  24 H :    0.157778
  25 H :    0.131572
  26 H :    0.141674
  27 H :    0.147338
  28 H :    0.358084
Sum of atomic charges:   -0.0000000

LOEWDIN ATOMIC CHARGES
----------------------
   0 C :    0.174906
   1 C :   -0.213951
   2 C :   -0.216917
   3 C :   -0.029734
   4 O :   -0.331774
   5 H :    0.094885
   6 H :    0.112889
   7 H :    0.128100
   8 H :    0.113496
   9 H :    0.124307
  10 H :    0.101636
  11 H :    0.103592
  12 C :   -0.052312
  13 H :    0.096446
  14 H :    0.098240
  15 O :   -0.318598
  16 C :    0.022407
  17 C :    0.035692
  18 C :   -0.241015
  19 C :   -0.030532
  20 O :   -0.314554
  21 H :    0.119480
  22 H :    0.119364
  23 O :   -0.407509
  24 H :    0.122418
  25 H :    0.103588
  26 H :    0.101308
  27 H :    0.105074
  28 H :    0.279070

  Mayer bond orders larger than 0.100000
B(  0-C ,  1-C ) :   0.9510 B(  0-C ,  4-O ) :   0.8917 B(  0-C ,  5-H ) :   0.9194
B(  0-C , 15-O ) :   0.8603 B(  1-C ,  2-C ) :   0.9551 B(  1-C ,  6-H ) :   0.9394
B(  1-C ,  7-H ) :   0.9346 B(  2-C ,  3-C ) :   0.9563 B(  2-C ,  8-H ) :   0.9448
B(  2-C ,  9-H ) :   0.9414 B(  3-C ,  4-O ) :   0.8343 B(  3-C , 10-H ) :   0.9360
B(  3-C , 11-H ) :   0.9407 B( 12-C , 13-H ) :   0.9046 B( 12-C , 14-H ) :   0.9127
B( 12-C , 15-O ) :   0.8342 B( 12-C , 16-C ) :   0.9063 B( 16-C , 17-C ) :   0.8770
B( 16-C , 20-O ) :   0.8682 B( 16-C , 21-H ) :   0.9292 B( 17-C , 18-C ) :   0.9207
B( 17-C , 22-H ) :   0.9342 B( 17-C , 23-O ) :   0.8990 B( 18-C , 19-C ) :   0.9391
B( 18-C , 24-H ) :   0.9417 B( 18-C , 25-H ) :   0.9416 B( 19-C , 20-O ) :   0.8525
B( 19-C , 26-H ) :   0.9318 B( 19-C , 27-H ) :   0.9378 B( 23-O , 28-H ) :   0.7967

FINAL SINGLE POINT ENERGY      -652.862115993563

DIPOLE MOMENT
-------------
                                X             Y             Z
Electronic contribution:     -2.28242      -2.61893      -2.93082
Nuclear contribution   :      2.82349       2.82002       3.76953
                        -----------------------------------------
Total Dipole Moment    :      0.54107       0.20109       0.83872
                        -----------------------------------------
Magnitude (a.u.)       :      1.01816
Magnitude (Debye)      :      2.58795

Rotational constants in cm-1:     0.049857     0.014007     0.013084
Rotational constants in MHz :  1494.662596   419.910849   392.255553

                             ****ORCA TERMINATED NORMALLY****
TOTAL RUN TIME: 0 days 1 hours 53 minutes 40 seconds 978 msec
