                         Program Version 4.2.0 -  RELEASE  -
|  1> # Test redundant internal optimization
|  2> #
|  3> ! RKS B3LYP  Opt TightSCF SmallPrint
|  4>
|  5> %basis
|  6>         Basis "6-31G"
|  7> end
|  8>
|  9> %geom
| 10> Constraints
| 11> { D 4  0  15  12  165.0   C } # D for Dihedral angle
| 12> { D 0  15  12  16  225.0   C } # D for Dihedral angle
| 13> { D 0  4  3  2   C } # D for Dihedral angle
| 14> { D 4  3  2  1   C } # D for Dihedral angle
| 15> { D 3  2  1  0   C } # D for Dihedral angle
| 16> { D 2  1  0  4   C } # D for Dihedral angle
| 17> { D 1  0  4  3   C } # D for Dihedral angle
| 18> { D 16  20  19  18   C } # D for Dihedral angle
| 19> { D 20  19  18  17   C } # D for Dihedral angle
| 20> { D 19  18  17  16   C } # D for Dihedral angle
| 21> { D 18  17  16  20   C } # D for Dihedral angle
| 22> { D 17  16  20  19   C } # D for Dihedral angle
| 23> { D 15  12  16  20   C } # D for Dihedral angle
| 24> end
| 25> end
| 26>
| 27>
| 28> #%pal
| 29> #nprocs 8
| 30> #end
| 31>
| 32> * xyz 0 1
| 33> C  -21.048   26.222   46.251
| 34> C  -20.361   27.558   45.944
| 35> C  -20.329   28.222   47.341
| 36> C  -20.110   27.022   48.296
| 37> O  -20.473   25.807   47.535
| 38> H  -20.833   25.428   45.533
| 39> H  -19.344   27.382   45.576
| 40> H  -20.898   28.157   45.201
| 41> H  -19.543   28.978   47.434
| 42> H  -21.289   28.710   47.548
| 43> H  -20.733   27.082   49.195
| 44> H  -19.064   26.913   48.597
| 45> C  -23.260   27.170   45.210
| 46> H  -22.488   27.686   44.625
| 47> H  -23.790   26.478   44.544
| 48> O  -22.586   26.394   46.375
| 49> C  -24.285   28.227   45.707
| 50> C  -25.013   28.890   44.533
| 51> C  -26.065   27.816   44.167
| 52> C  -26.439   27.209   45.543
| 53> O  -25.354   27.581   46.476
| 54> H  -23.783   28.924   46.380
| 55> H  -25.503   29.813   44.865
| 56> O  -24.070   29.237   43.348
| 57> H  -26.932   28.231   43.644
| 58> H  -25.615   27.054   43.519
| 59> H  -26.525   26.117   45.510
| 60> H  -27.367   27.626   45.944
| 61> H  -23.569   28.328   42.996
| 62> *
| 63>
| 64>                          ****END OF INPUT****
 Total Charge           Charge          ....    0
 Multiplicity           Mult            ....    1
 Number of Electrons    NEL             ....  102
FINAL SINGLE POINT ENERGY      -652.818982940661
FINAL SINGLE POINT ENERGY      -652.842533550279
FINAL SINGLE POINT ENERGY      -652.847524144296
FINAL SINGLE POINT ENERGY      -652.848470327517
FINAL SINGLE POINT ENERGY      -652.848669277241
FINAL SINGLE POINT ENERGY      -652.848724905278
FINAL SINGLE POINT ENERGY      -652.848732118124
FINAL SINGLE POINT ENERGY      -652.848734452478
                    ***********************HURRAY********************

CARTESIAN COORDINATES (ANGSTROEM)
---------------------------------
  C    -21.038285   26.243780   46.201550
  C    -20.249729   27.527627   45.942899
  C    -20.368998   28.262343   47.304761
  C    -20.343323   27.097853   48.316414
  O    -20.669152   25.878047   47.536521
  H    -20.780055   25.402421   45.551242
  H    -19.207063   27.255648   45.741142
  H    -20.604129   28.127426   45.101395
  H    -19.555259   28.975767   47.465642
  H    -21.317781   28.803793   47.359139
  H    -21.079806   27.205838   49.116354
  H    -19.352861   26.934832   48.751748
  C    -23.146893   27.106138   45.113909
  H    -22.436694   27.659254   44.487465
  H    -23.640258   26.350399   44.484409
  O    -22.490311   26.423949   46.213117
  C    -24.164879   28.102974   45.667992
  C    -24.948393   28.850658   44.576999
  C    -26.081769   27.835059   44.240160
  C    -26.375171   27.189969   45.613160
  O    -25.202402   27.475130   46.477538
  H    -23.640569   28.788921   46.340225
  H    -25.369808   29.766859   44.995718
  O    -24.161008   29.291696   43.441217
  H    -26.957273   28.320938   43.801544
  H    -25.709553   27.093682   43.519912
  H    -26.518419   26.106748   45.553774
  H    -27.247346   27.635138   46.100380
  H    -24.011813   28.549112   42.820675

 Multiplicity           Mult            ....    1
 Number of Electrons    NEL             ....  102
 Basis Dimension        Dim             ....  149

ORBITAL ENERGIES
----------------

  NO   OCC          E(Eh)            E(eV)
   0   2.0000     -19.153355      -521.1893
   1   2.0000     -19.136067      -520.7189
   2   2.0000     -19.135919      -520.7148
   3   2.0000     -19.133854      -520.6586
   4   2.0000     -10.277568      -279.6669
   5   2.0000     -10.247164      -278.8395
   6   2.0000     -10.231163      -278.4041
   7   2.0000     -10.230617      -278.3892
   8   2.0000     -10.230066      -278.3743
   9   2.0000     -10.221589      -278.1436
  10   2.0000     -10.198241      -277.5082
  11   2.0000     -10.188503      -277.2433
  12   2.0000     -10.186641      -277.1926
  13   2.0000      -1.048915       -28.5424
  14   2.0000      -1.035641       -28.1812
  15   2.0000      -1.016381       -27.6571
  16   2.0000      -0.987742       -26.8778
  17   2.0000      -0.785456       -21.3733
  18   2.0000      -0.784254       -21.3406
  19   2.0000      -0.768710       -20.9177
  20   2.0000      -0.730900       -19.8888
  21   2.0000      -0.682837       -18.5809
  22   2.0000      -0.613679       -16.6991
  23   2.0000      -0.601226       -16.3602
  24   2.0000      -0.589908       -16.0522
  25   2.0000      -0.573355       -15.6018
  26   2.0000      -0.525038       -14.2870
  27   2.0000      -0.512709       -13.9515
  28   2.0000      -0.503169       -13.6919
  29   2.0000      -0.495350       -13.4792
  30   2.0000      -0.465096       -12.6559
  31   2.0000      -0.454724       -12.3737
  32   2.0000      -0.450003       -12.2452
  33   2.0000      -0.433840       -11.8054
  34   2.0000      -0.428752       -11.6669
  35   2.0000      -0.423092       -11.5129
  36   2.0000      -0.406506       -11.0616
  37   2.0000      -0.399779       -10.8785
  38   2.0000      -0.378303       -10.2941
  39   2.0000      -0.374833       -10.1997
  40   2.0000      -0.357996        -9.7416
  41   2.0000      -0.352989        -9.6053
  42   2.0000      -0.352421        -9.5899
  43   2.0000      -0.331344        -9.0163
  44   2.0000      -0.318847        -8.6763
  45   2.0000      -0.307759        -8.3746
  46   2.0000      -0.292851        -7.9689
  47   2.0000      -0.273892        -7.4530
  48   2.0000      -0.259824        -7.0702
  49   2.0000      -0.250961        -6.8290
  50   2.0000      -0.235445        -6.4068
  51   0.0000       0.047486         1.2922
  52   0.0000       0.075511         2.0548
  53   0.0000       0.082910         2.2561
  54   0.0000       0.088644         2.4121
  55   0.0000       0.103663         2.8208

MULLIKEN ATOMIC CHARGES
-----------------------
   0 C :    0.310204
   1 C :   -0.296327
   2 C :   -0.301591
   3 C :    0.000514
   4 O :   -0.496558
   5 H :    0.141499
   6 H :    0.151088
   7 H :    0.147692
   8 H :    0.143174
   9 H :    0.159981
  10 H :    0.158638
  11 H :    0.141023
  12 C :   -0.018063
  13 H :    0.124582
  14 H :    0.125092
  15 O :   -0.504443
  16 C :    0.099535
  17 C :    0.083489
  18 C :   -0.330964
  19 C :   -0.008132
  20 O :   -0.500801
  21 H :    0.158213
  22 H :    0.166528
  23 O :   -0.601869
  24 H :    0.158108
  25 H :    0.134972
  26 H :    0.150388
  27 H :    0.148237
  28 H :    0.355792
Sum of atomic charges:   -0.0000000

LOEWDIN ATOMIC CHARGES
----------------------
   0 C :    0.184253
   1 C :   -0.235943
   2 C :   -0.216918
   3 C :   -0.025312
   4 O :   -0.300993
   5 H :    0.096608
   6 H :    0.118308
   7 H :    0.114015
   8 H :    0.114868
   9 H :    0.114458
  10 H :    0.111820
  11 H :    0.102085
  12 C :   -0.052650
  13 H :    0.096278
  14 H :    0.092148
  15 O :   -0.323678
  16 C :    0.020073
  17 C :    0.033476
  18 C :   -0.242344
  19 C :   -0.028951
  20 O :   -0.310414
  21 H :    0.113610
  22 H :    0.119097
  23 O :   -0.410039
  24 H :    0.122580
  25 H :    0.104148
  26 H :    0.106041
  27 H :    0.105774
  28 H :    0.277605

  Mayer bond orders larger than 0.100000
B(  0-C ,  1-C ) :   0.9290 B(  0-C ,  4-O ) :   0.9386 B(  0-C ,  5-H ) :   0.9233
B(  0-C , 15-O ) :   0.8409 B(  1-C ,  2-C ) :   0.9500 B(  1-C ,  6-H ) :   0.9330
B(  1-C ,  7-H ) :   0.9265 B(  2-C ,  3-C ) :   0.9548 B(  2-C ,  8-H ) :   0.9447
B(  2-C ,  9-H ) :   0.9408 B(  3-C ,  4-O ) :   0.8353 B(  3-C , 10-H ) :   0.9337
B(  3-C , 11-H ) :   0.9398 B( 12-C , 13-H ) :   0.8942 B( 12-C , 14-H ) :   0.9245
B( 12-C , 15-O ) :   0.8541 B( 12-C , 16-C ) :   0.8992 B( 16-C , 17-C ) :   0.8678
B( 16-C , 20-O ) :   0.8761 B( 16-C , 21-H ) :   0.9287 B( 17-C , 18-C ) :   0.9285
B( 17-C , 22-H ) :   0.9331 B( 17-C , 23-O ) :   0.8909 B( 18-C , 19-C ) :   0.9389
B( 18-C , 24-H ) :   0.9417 B( 18-C , 25-H ) :   0.9393 B( 19-C , 20-O ) :   0.8519
B( 19-C , 26-H ) :   0.9304 B( 19-C , 27-H ) :   0.9378 B( 23-O , 28-H ) :   0.7991

FINAL SINGLE POINT ENERGY      -652.848734841691

DIPOLE MOMENT
-------------
                                X             Y             Z
Electronic contribution:     -0.87858      -2.48951       1.47696
Nuclear contribution   :      0.88020       3.04259      -2.72095
                        -----------------------------------------
Total Dipole Moment    :      0.00162       0.55308      -1.24399
                        -----------------------------------------
Magnitude (a.u.)       :      1.36141
Magnitude (Debye)      :      3.46042

Rotational constants in cm-1:     0.052981     0.013476     0.012255
Rotational constants in MHz :  1588.318235   403.996150   367.394892

                             ****ORCA TERMINATED NORMALLY****
TOTAL RUN TIME: 0 days 0 hours 25 minutes 8 seconds 745 msec
