                         Program Version 4.2.0 -  RELEASE  -
|  1> # Test redundant internal optimization
|  2> #
|  3> ! RKS B3LYP  Opt TightSCF SmallPrint
|  4>
|  5> %basis
|  6>         Basis "6-31G"
|  7> end
|  8>
|  9> %geom
| 10> Constraints
| 11> { D 4  0  15  12  240.0   C } # D for Dihedral angle
| 12> { D 0  15  12  16  345.0   C } # D for Dihedral angle
| 13> { D 0  4  3  2   C } # D for Dihedral angle
| 14> { D 4  3  2  1   C } # D for Dihedral angle
| 15> { D 3  2  1  0   C } # D for Dihedral angle
| 16> { D 2  1  0  4   C } # D for Dihedral angle
| 17> { D 1  0  4  3   C } # D for Dihedral angle
| 18> { D 16  20  19  18   C } # D for Dihedral angle
| 19> { D 20  19  18  17   C } # D for Dihedral angle
| 20> { D 19  18  17  16   C } # D for Dihedral angle
| 21> { D 18  17  16  20   C } # D for Dihedral angle
| 22> { D 17  16  20  19   C } # D for Dihedral angle
| 23> { D 15  12  16  20   C } # D for Dihedral angle
| 24> end
| 25> end
| 26>
| 27>
| 28> #%pal
| 29> #nprocs 8
| 30> #end
| 31>
| 32> * xyz 0 1
| 33> C  -21.048   26.222   46.251
| 34> C  -20.361   27.558   45.944
| 35> C  -20.329   28.222   47.341
| 36> C  -20.110   27.022   48.296
| 37> O  -20.473   25.807   47.535
| 38> H  -20.833   25.428   45.533
| 39> H  -19.344   27.382   45.576
| 40> H  -20.898   28.157   45.201
| 41> H  -19.543   28.978   47.434
| 42> H  -21.289   28.710   47.548
| 43> H  -20.733   27.082   49.195
| 44> H  -19.064   26.913   48.597
| 45> C  -23.430   25.483   45.442
| 46> H  -23.880   24.677   46.035
| 47> H  -24.239   26.057   44.973
| 48> O  -22.586   26.394   46.375
| 49> C  -22.586   24.841   44.306
| 50> C  -23.469   24.044   43.340
| 51> C  -24.073   25.169   42.466
| 52> C  -22.918   26.196   42.368
| 53> O  -21.981   25.881   43.467
| 54> H  -21.768   24.269   44.747
| 55> H  -22.852   23.372   42.732
| 56> O  -24.552   23.195   44.061
| 57> H  -24.400   24.814   41.483
| 58> H  -24.942   25.611   42.968
| 59> H  -23.265   27.230   42.479
| 60> H  -22.359   26.109   41.432
| 61> H  -25.183   23.847   44.675
| 62> *
| 63>
| 64>                          ****END OF INPUT****
 Total Charge           Charge          ....    0
 Multiplicity           Mult            ....    1
 Number of Electrons    NEL             ....  102
FINAL SINGLE POINT ENERGY      -652.820771300786
FINAL SINGLE POINT ENERGY      -652.844409634130
FINAL SINGLE POINT ENERGY      -652.850068148659
FINAL SINGLE POINT ENERGY      -652.852256595645
FINAL SINGLE POINT ENERGY      -652.852541643160
FINAL SINGLE POINT ENERGY      -652.852614474369
FINAL SINGLE POINT ENERGY      -652.852620743842
FINAL SINGLE POINT ENERGY      -652.852622718782
                    ***********************HURRAY********************

CARTESIAN COORDINATES (ANGSTROEM)
---------------------------------
  C    -20.881639   26.215950   46.223455
  C    -20.306311   27.616132   46.009835
  C    -20.439798   28.234895   47.421944
  C    -20.178534   27.029198   48.352541
  O    -20.372805   25.820410   47.515904
  H    -20.549566   25.471178   45.504705
  H    -19.252528   27.534913   45.717255
  H    -20.847614   28.161561   45.235377
  H    -19.735721   29.054641   47.593616
  H    -21.456628   28.613954   47.561078
  H    -20.866856   26.984919   49.200838
  H    -19.148557   26.993942   48.721471
  C    -23.211501   25.524105   45.437865
  H    -23.688196   24.762779   46.070847
  H    -23.983693   26.223985   45.096723
  O    -22.327214   26.321737   46.276035
  C    -22.581317   24.811272   44.241487
  C    -23.609079   24.052109   43.381926
  C    -24.186119   25.194318   42.487515
  C    -22.954066   26.097456   42.256162
  O    -21.961608   25.746089   43.304539
  H    -21.789938   24.135102   44.574548
  H    -23.084049   23.318929   42.765967
  O    -24.592081   23.278775   44.105061
  H    -24.612478   24.811662   41.557286
  H    -24.978646   25.724107   43.031782
  H    -23.185615   27.164367   42.330758
  H    -22.476488   25.906810   41.290425
  H    -25.249352   23.864703   44.533055

 Multiplicity           Mult            ....    1
 Number of Electrons    NEL             ....  102
 Basis Dimension        Dim             ....  149

ORBITAL ENERGIES
----------------

  NO   OCC          E(Eh)            E(eV)
   0   2.0000     -19.155272      -521.2414
   1   2.0000     -19.148271      -521.0509
   2   2.0000     -19.131422      -520.5925
   3   2.0000     -19.126660      -520.4629
   4   2.0000     -10.267400      -279.3902
   5   2.0000     -10.252696      -278.9900
   6   2.0000     -10.239555      -278.6325
   7   2.0000     -10.238970      -278.6165
   8   2.0000     -10.232492      -278.4403
   9   2.0000     -10.214262      -277.9442
  10   2.0000     -10.201648      -277.6010
  11   2.0000     -10.174419      -276.8600
  12   2.0000     -10.171058      -276.7686
  13   2.0000      -1.044528       -28.4230
  14   2.0000      -1.036785       -28.2124
  15   2.0000      -1.023490       -27.8506
  16   2.0000      -0.982150       -26.7257
  17   2.0000      -0.790074       -21.4990
  18   2.0000      -0.777118       -21.1464
  19   2.0000      -0.767097       -20.8738
  20   2.0000      -0.728727       -19.8297
  21   2.0000      -0.680656       -18.5216
  22   2.0000      -0.619160       -16.8482
  23   2.0000      -0.605175       -16.4676
  24   2.0000      -0.586701       -15.9650
  25   2.0000      -0.559457       -15.2236
  26   2.0000      -0.538275       -14.6472
  27   2.0000      -0.514261       -13.9938
  28   2.0000      -0.494034       -13.4433
  29   2.0000      -0.478285       -13.0148
  30   2.0000      -0.470675       -12.8077
  31   2.0000      -0.454007       -12.3542
  32   2.0000      -0.440010       -11.9733
  33   2.0000      -0.435322       -11.8457
  34   2.0000      -0.432504       -11.7690
  35   2.0000      -0.424084       -11.5399
  36   2.0000      -0.407519       -11.0892
  37   2.0000      -0.392448       -10.6790
  38   2.0000      -0.385941       -10.5020
  39   2.0000      -0.366730        -9.9792
  40   2.0000      -0.356819        -9.7095
  41   2.0000      -0.346131        -9.4187
  42   2.0000      -0.340533        -9.2664
  43   2.0000      -0.336127        -9.1465
  44   2.0000      -0.323491        -8.8026
  45   2.0000      -0.305441        -8.3115
  46   2.0000      -0.298510        -8.1229
  47   2.0000      -0.278211        -7.5705
  48   2.0000      -0.258771        -7.0415
  49   2.0000      -0.246355        -6.7036
  50   2.0000      -0.234085        -6.3698
  51   0.0000       0.046205         1.2573
  52   0.0000       0.071783         1.9533
  53   0.0000       0.083699         2.2776
  54   0.0000       0.095614         2.6018
  55   0.0000       0.101038         2.7494

MULLIKEN ATOMIC CHARGES
-----------------------
   0 C :    0.285126
   1 C :   -0.243354
   2 C :   -0.300057
   3 C :    0.000717
   4 O :   -0.507859
   5 H :    0.159929
   6 H :    0.138224
   7 H :    0.151276
   8 H :    0.134977
   9 H :    0.158413
  10 H :    0.146382
  11 H :    0.136495
  12 C :    0.030478
  13 H :    0.139755
  14 H :    0.130693
  15 O :   -0.537363
  16 C :    0.039525
  17 C :    0.087462
  18 C :   -0.321395
  19 C :   -0.010641
  20 O :   -0.521565
  21 H :    0.170228
  22 H :    0.169739
  23 O :   -0.594769
  24 H :    0.160081
  25 H :    0.136302
  26 H :    0.150001
  27 H :    0.152708
  28 H :    0.358493
Sum of atomic charges:   -0.0000000

LOEWDIN ATOMIC CHARGES
----------------------
   0 C :    0.179028
   1 C :   -0.216242
   2 C :   -0.218165
   3 C :   -0.026979
   4 O :   -0.321031
   5 H :    0.106404
   6 H :    0.110496
   7 H :    0.121039
   8 H :    0.110631
   9 H :    0.117263
  10 H :    0.104722
  11 H :    0.099352
  12 C :   -0.039734
  13 H :    0.103451
  14 H :    0.099146
  15 O :   -0.332110
  16 C :    0.000677
  17 C :    0.039699
  18 C :   -0.240345
  19 C :   -0.028517
  20 O :   -0.327425
  21 H :    0.117581
  22 H :    0.120262
  23 O :   -0.402393
  24 H :    0.124393
  25 H :    0.105483
  26 H :    0.105767
  27 H :    0.107753
  28 H :    0.279795

  Mayer bond orders larger than 0.100000
B(  0-C ,  1-C ) :   0.9443 B(  0-C ,  4-O ) :   0.9142 B(  0-C ,  5-H ) :   0.9079
B(  0-C , 15-O ) :   0.8378 B(  1-C ,  2-C ) :   0.9557 B(  1-C ,  6-H ) :   0.9389
B(  1-C ,  7-H ) :   0.9382 B(  2-C ,  3-C ) :   0.9540 B(  2-C ,  8-H ) :   0.9460
B(  2-C ,  9-H ) :   0.9444 B(  3-C ,  4-O ) :   0.8425 B(  3-C , 10-H ) :   0.9354
B(  3-C , 11-H ) :   0.9403 B( 12-C , 13-H ) :   0.9044 B( 12-C , 14-H ) :   0.9295
B( 12-C , 15-O ) :   0.8565 B( 12-C , 16-C ) :   0.9055 B( 16-C , 17-C ) :   0.8691
B( 16-C , 20-O ) :   0.8426 B( 16-C , 21-H ) :   0.9215 B( 17-C , 18-C ) :   0.9197
B( 17-C , 22-H ) :   0.9335 B( 17-C , 23-O ) :   0.9077 B( 18-C , 19-C ) :   0.9393
B( 18-C , 24-H ) :   0.9416 B( 18-C , 25-H ) :   0.9405 B( 19-C , 20-O ) :   0.8401
B( 19-C , 26-H ) :   0.9319 B( 19-C , 27-H ) :   0.9379 B( 23-O , 28-H ) :   0.7959

FINAL SINGLE POINT ENERGY      -652.852622799943

DIPOLE MOMENT
-------------
                                X             Y             Z
Electronic contribution:     -0.11713      -4.36610       0.72294
Nuclear contribution   :     -0.56934       5.18012      -1.62917
                        -----------------------------------------
Total Dipole Moment    :     -0.68647       0.81402      -0.90623
                        -----------------------------------------
Magnitude (a.u.)       :      1.39826
Magnitude (Debye)      :      3.55409

Rotational constants in cm-1:     0.059893     0.013093     0.011746
Rotational constants in MHz :  1795.533665   392.524394   352.122694

                             ****ORCA TERMINATED NORMALLY****
TOTAL RUN TIME: 0 days 1 hours 23 minutes 23 seconds 108 msec
