                         Program Version 4.2.0 -  RELEASE  -
|  1> # Test redundant internal optimization
|  2> #
|  3> ! RKS B3LYP  Opt TightSCF SmallPrint
|  4>
|  5> %basis
|  6>         Basis "6-31G"
|  7> end
|  8>
|  9> %geom
| 10> Constraints
| 11> { D 4  0  15  12  225.0   C } # D for Dihedral angle
| 12> { D 0  15  12  16  30.0   C } # D for Dihedral angle
| 13> { D 0  4  3  2   C } # D for Dihedral angle
| 14> { D 4  3  2  1   C } # D for Dihedral angle
| 15> { D 3  2  1  0   C } # D for Dihedral angle
| 16> { D 2  1  0  4   C } # D for Dihedral angle
| 17> { D 1  0  4  3   C } # D for Dihedral angle
| 18> { D 16  20  19  18   C } # D for Dihedral angle
| 19> { D 20  19  18  17   C } # D for Dihedral angle
| 20> { D 19  18  17  16   C } # D for Dihedral angle
| 21> { D 18  17  16  20   C } # D for Dihedral angle
| 22> { D 17  16  20  19   C } # D for Dihedral angle
| 23> { D 15  12  16  20   C } # D for Dihedral angle
| 24> end
| 25> end
| 26>
| 27>
| 28> #%pal
| 29> #nprocs 8
| 30> #end
| 31>
| 32> * xyz 0 1
| 33> C  -21.048   26.222   46.251
| 34> C  -20.361   27.558   45.944
| 35> C  -20.329   28.222   47.341
| 36> C  -20.110   27.022   48.296
| 37> O  -20.473   25.807   47.535
| 38> H  -20.833   25.428   45.533
| 39> H  -19.344   27.382   45.576
| 40> H  -20.898   28.157   45.201
| 41> H  -19.543   28.978   47.434
| 42> H  -21.289   28.710   47.548
| 43> H  -20.733   27.082   49.195
| 44> H  -19.064   26.913   48.597
| 45> C  -23.415   25.773   45.218
| 46> H  -24.398   25.468   45.600
| 47> H  -23.572   26.509   44.419
| 48> O  -22.586   26.394   46.375
| 49> C  -22.729   24.530   44.587
| 50> C  -22.624   23.380   45.596
| 51> C  -24.058   22.799   45.560
| 52> C  -24.473   22.980   44.078
| 53> O  -23.553   23.985   43.503
| 54> H  -21.778   24.832   44.145
| 55> H  -21.897   22.638   45.246
| 56> O  -22.199   23.850   47.014
| 57> H  -24.100   21.754   45.881
| 58> H  -24.715   23.379   46.219
| 59> H  -25.503   23.334   43.971
| 60> H  -24.353   22.062   43.496
| 61> H  -22.914   24.594   47.384
| 62> *
| 63>
| 64>                          ****END OF INPUT****
 Total Charge           Charge          ....    0
 Multiplicity           Mult            ....    1
 Number of Electrons    NEL             ....  102
FINAL SINGLE POINT ENERGY      -652.818798022577
FINAL SINGLE POINT ENERGY      -652.845715721218
FINAL SINGLE POINT ENERGY      -652.854765406760
FINAL SINGLE POINT ENERGY      -652.856983859172
FINAL SINGLE POINT ENERGY      -652.857469509381
FINAL SINGLE POINT ENERGY      -652.857581490901
FINAL SINGLE POINT ENERGY      -652.857591805551
FINAL SINGLE POINT ENERGY      -652.857595581056
                    ***********************HURRAY********************

CARTESIAN COORDINATES (ANGSTROEM)
---------------------------------
  C    -20.911437   26.217967   46.254030
  C    -20.260975   27.574113   45.982703
  C    -20.485295   28.309258   47.325522
  C    -20.355120   27.177441   48.367192
  O    -20.531333   25.909507   47.609524
  H    -20.570419   25.392231   45.632414
  H    -19.191559   27.432624   45.785872
  H    -20.710970   28.089508   45.130338
  H    -19.762623   29.113676   47.491236
  H    -21.492117   28.735728   47.345717
  H    -21.115518   27.223441   49.151109
  H    -19.362870   27.129866   48.825225
  C    -23.200550   25.744498   45.199006
  H    -24.161233   25.579032   45.694625
  H    -23.362566   26.469718   44.391726
  O    -22.361084   26.350749   46.234190
  C    -22.715338   24.439502   44.543395
  C    -22.622869   23.215631   45.474673
  C    -24.121838   22.806662   45.610691
  C    -24.696517   23.131446   44.216741
  O    -23.733952   24.066062   43.562317
  H    -21.794580   24.598888   43.976064
  H    -22.083215   22.422368   44.948689
  O    -21.907921   23.377391   46.711121
  H    -24.228647   21.752979   45.880051
  H    -24.594577   23.404226   46.399014
  H    -25.679527   23.610720   44.252977
  H    -24.758270   22.249201   43.573051
  H    -22.119077   24.217565   47.173786

 Multiplicity           Mult            ....    1
 Number of Electrons    NEL             ....  102
 Basis Dimension        Dim             ....  149

ORBITAL ENERGIES
----------------

  NO   OCC          E(Eh)            E(eV)
   0   2.0000     -19.146744      -521.0094
   1   2.0000     -19.145056      -520.9635
   2   2.0000     -19.144062      -520.9364
   3   2.0000     -19.129540      -520.5413
   4   2.0000     -10.282726      -279.8072
   5   2.0000     -10.238403      -278.6011
   6   2.0000     -10.238071      -278.5921
   7   2.0000     -10.234664      -278.4994
   8   2.0000     -10.231204      -278.4052
   9   2.0000     -10.226861      -278.2870
  10   2.0000     -10.187629      -277.2195
  11   2.0000     -10.186721      -277.1948
  12   2.0000     -10.186384      -277.1856
  13   2.0000      -1.056515       -28.7492
  14   2.0000      -1.029708       -28.0198
  15   2.0000      -1.006244       -27.3813
  16   2.0000      -0.994674       -27.0665
  17   2.0000      -0.788493       -21.4560
  18   2.0000      -0.776945       -21.1418
  19   2.0000      -0.767256       -20.8781
  20   2.0000      -0.736331       -20.0366
  21   2.0000      -0.680489       -18.5170
  22   2.0000      -0.610070       -16.6009
  23   2.0000      -0.604032       -16.4365
  24   2.0000      -0.599880       -16.3236
  25   2.0000      -0.566857       -15.4250
  26   2.0000      -0.528803       -14.3895
  27   2.0000      -0.524268       -14.2661
  28   2.0000      -0.494491       -13.4558
  29   2.0000      -0.486974       -13.2512
  30   2.0000      -0.464260       -12.6332
  31   2.0000      -0.458784       -12.4842
  32   2.0000      -0.450691       -12.2639
  33   2.0000      -0.429775       -11.6948
  34   2.0000      -0.423468       -11.5231
  35   2.0000      -0.416649       -11.3376
  36   2.0000      -0.402378       -10.9493
  37   2.0000      -0.401566       -10.9272
  38   2.0000      -0.376447       -10.2436
  39   2.0000      -0.373979       -10.1765
  40   2.0000      -0.359291        -9.7768
  41   2.0000      -0.355976        -9.6866
  42   2.0000      -0.352803        -9.6003
  43   2.0000      -0.335158        -9.1201
  44   2.0000      -0.318472        -8.6661
  45   2.0000      -0.313248        -8.5239
  46   2.0000      -0.300836        -8.1862
  47   2.0000      -0.269752        -7.3403
  48   2.0000      -0.259027        -7.0485
  49   2.0000      -0.253510        -6.8983
  50   2.0000      -0.242233        -6.5915
  51   0.0000       0.058718         1.5978
  52   0.0000       0.077424         2.1068
  53   0.0000       0.092377         2.5137
  54   0.0000       0.096884         2.6363
  55   0.0000       0.106714         2.9038

MULLIKEN ATOMIC CHARGES
-----------------------
   0 C :    0.261819
   1 C :   -0.250550
   2 C :   -0.299453
   3 C :   -0.004192
   4 O :   -0.505528
   5 H :    0.165812
   6 H :    0.147007
   7 H :    0.145831
   8 H :    0.142178
   9 H :    0.164529
  10 H :    0.152925
  11 H :    0.145939
  12 C :   -0.011877
  13 H :    0.153999
  14 H :    0.154909
  15 O :   -0.542270
  16 C :    0.036800
  17 C :    0.114715
  18 C :   -0.311976
  19 C :   -0.024394
  20 O :   -0.521239
  21 H :    0.153814
  22 H :    0.159449
  23 O :   -0.614520
  24 H :    0.155158
  25 H :    0.144894
  26 H :    0.145640
  27 H :    0.154444
  28 H :    0.386137
Sum of atomic charges:   -0.0000000

LOEWDIN ATOMIC CHARGES
----------------------
   0 C :    0.166607
   1 C :   -0.220195
   2 C :   -0.215896
   3 C :   -0.026652
   4 O :   -0.311469
   5 H :    0.108066
   6 H :    0.114400
   7 H :    0.117928
   8 H :    0.114400
   9 H :    0.120331
  10 H :    0.108493
  11 H :    0.104418
  12 C :   -0.048255
  13 H :    0.111448
  14 H :    0.107150
  15 O :   -0.345488
  16 C :    0.002505
  17 C :    0.037536
  18 C :   -0.240172
  19 C :   -0.032613
  20 O :   -0.320841
  21 H :    0.109891
  22 H :    0.113619
  23 O :   -0.410370
  24 H :    0.123254
  25 H :    0.110356
  26 H :    0.103442
  27 H :    0.108142
  28 H :    0.289963

  Mayer bond orders larger than 0.100000
B(  0-C ,  1-C ) :   0.9412 B(  0-C ,  4-O ) :   0.9070 B(  0-C ,  5-H ) :   0.9067
B(  0-C , 15-O ) :   0.8174 B(  1-C ,  2-C ) :   0.9538 B(  1-C ,  6-H ) :   0.9355
B(  1-C ,  7-H ) :   0.9396 B(  2-C ,  3-C ) :   0.9536 B(  2-C ,  8-H ) :   0.9452
B(  2-C ,  9-H ) :   0.9431 B(  3-C ,  4-O ) :   0.8306 B(  3-C , 10-H ) :   0.9355
B(  3-C , 11-H ) :   0.9397 B( 12-C , 13-H ) :   0.9346 B( 12-C , 14-H ) :   0.9216
B( 12-C , 15-O ) :   0.8234 B( 12-C , 16-C ) :   0.8924 B( 16-C , 17-C ) :   0.8883
B( 16-C , 20-O ) :   0.8380 B( 16-C , 21-H ) :   0.9281 B( 17-C , 18-C ) :   0.9064
B( 17-C , 22-H ) :   0.9324 B( 17-C , 23-O ) :   0.9346 B( 18-C , 19-C ) :   0.9378
B( 18-C , 24-H ) :   0.9437 B( 18-C , 25-H ) :   0.9429 B( 19-C , 20-O ) :   0.8307
B( 19-C , 26-H ) :   0.9332 B( 19-C , 27-H ) :   0.9378 B( 23-O , 28-H ) :   0.7462

FINAL SINGLE POINT ENERGY      -652.857595407226

DIPOLE MOMENT
-------------
                                X             Y             Z
Electronic contribution:      0.34555      -2.53800      -0.66463
Nuclear contribution   :     -0.56802       3.26127       0.53988
                        -----------------------------------------
Total Dipole Moment    :     -0.22247       0.72326      -0.12475
                        -----------------------------------------
Magnitude (a.u.)       :      0.76692
Magnitude (Debye)      :      1.94936

Rotational constants in cm-1:     0.063127     0.014208     0.012744
Rotational constants in MHz :  1892.510958   425.957244   382.059233

                             ****ORCA TERMINATED NORMALLY****
TOTAL RUN TIME: 0 days 2 hours 9 minutes 21 seconds 735 msec
