                         Program Version 4.2.0 -  RELEASE  -
|  1> # Test redundant internal optimization
|  2> #
|  3> ! RKS B3LYP  Opt TightSCF SmallPrint
|  4>
|  5> %basis
|  6>         Basis "6-31G"
|  7> end
|  8>
|  9> %geom
| 10> Constraints
| 11> { D 4  0  15  12  285.0   C } # D for Dihedral angle
| 12> { D 0  15  12  16  210.0   C } # D for Dihedral angle
| 13> { D 0  4  3  2   C } # D for Dihedral angle
| 14> { D 4  3  2  1   C } # D for Dihedral angle
| 15> { D 3  2  1  0   C } # D for Dihedral angle
| 16> { D 2  1  0  4   C } # D for Dihedral angle
| 17> { D 1  0  4  3   C } # D for Dihedral angle
| 18> { D 16  20  19  18   C } # D for Dihedral angle
| 19> { D 20  19  18  17   C } # D for Dihedral angle
| 20> { D 19  18  17  16   C } # D for Dihedral angle
| 21> { D 18  17  16  20   C } # D for Dihedral angle
| 22> { D 17  16  20  19   C } # D for Dihedral angle
| 23> { D 15  12  16  20   C } # D for Dihedral angle
| 24> end
| 25> end
| 26>
| 27>
| 28> #%pal
| 29> #nprocs 8
| 30> #end
| 31>
| 32> * xyz 0 1
| 33> C  -21.048   26.222   46.251
| 34> C  -20.361   27.558   45.944
| 35> C  -20.329   28.222   47.341
| 36> C  -20.110   27.022   48.296
| 37> O  -20.473   25.807   47.535
| 38> H  -20.833   25.428   45.533
| 39> H  -19.344   27.382   45.576
| 40> H  -20.898   28.157   45.201
| 41> H  -19.543   28.978   47.434
| 42> H  -21.289   28.710   47.548
| 43> H  -20.733   27.082   49.195
| 44> H  -19.064   26.913   48.597
| 45> C  -23.396   25.070   46.435
| 46> H  -22.860   24.292   45.878
| 47> H  -23.505   24.734   47.474
| 48> O  -22.586   26.394   46.375
| 49> C  -24.821   25.209   45.831
| 50> C  -24.761   25.513   44.330
| 51> C  -24.480   24.112   43.737
| 52> C  -25.270   23.167   44.678
| 53> O  -25.539   23.933   45.914
| 54> H  -25.388   25.934   46.417
| 55> H  -25.730   25.891   43.984
| 56> O  -23.670   26.554   43.960
| 57> H  -24.796   24.021   42.694
| 58> H  -23.406   23.893   43.782
| 59> H  -24.708   22.263   44.933
| 60> H  -26.237   22.876   44.261
| 61> H  -22.691   26.196   44.297
| 62> *
| 63>
| 64>                          ****END OF INPUT****
 Total Charge           Charge          ....    0
 Multiplicity           Mult            ....    1
 Number of Electrons    NEL             ....  102
FINAL SINGLE POINT ENERGY      -652.829355739552
FINAL SINGLE POINT ENERGY      -652.855798740939
FINAL SINGLE POINT ENERGY      -652.862511817707
FINAL SINGLE POINT ENERGY      -652.865290633953
FINAL SINGLE POINT ENERGY      -652.866764483081
FINAL SINGLE POINT ENERGY      -652.867972021318
FINAL SINGLE POINT ENERGY      -652.868814664483
FINAL SINGLE POINT ENERGY      -652.869233070506
FINAL SINGLE POINT ENERGY      -652.869349126853
FINAL SINGLE POINT ENERGY      -652.869368975303
FINAL SINGLE POINT ENERGY      -652.869374336869
                    ***********************HURRAY********************

CARTESIAN COORDINATES (ANGSTROEM)
---------------------------------
  C    -21.052622   26.104522   46.258762
  C    -20.433334   27.457969   45.914347
  C    -20.449890   28.172968   47.285100
  C    -20.181820   27.024556   48.281319
  O    -20.482188   25.770149   47.539105
  H    -20.820662   25.277219   45.581379
  H    -19.407147   27.297485   45.565457
  H    -20.984716   27.994090   45.138737
  H    -19.698967   28.965849   47.353485
  H    -21.435583   28.614310   47.458415
  H    -20.816612   27.066247   49.169520
  H    -19.133850   26.959389   48.587028
  C    -23.279914   25.042767   46.464196
  H    -22.740337   24.224112   45.970383
  H    -23.400587   24.787817   47.520054
  O    -22.493106   26.283389   46.341567
  C    -24.651436   25.255260   45.813114
  C    -24.632658   25.536703   44.301551
  C    -24.439843   24.107790   43.716122
  C    -25.235491   23.219510   44.695893
  O    -25.423076   24.021262   45.940074
  H    -25.197569   26.026720   46.364039
  H    -25.616795   25.921767   44.006996
  O    -23.627005   26.467801   43.849632
  H    -24.802374   24.035401   42.687450
  H    -23.370715   23.870800   43.715011
  H    -24.720474   22.288705   44.952818
  H    -26.236600   22.977959   44.328423
  H    -23.103628   26.760483   44.631026

 Multiplicity           Mult            ....    1
 Number of Electrons    NEL             ....  102
 Basis Dimension        Dim             ....  149

ORBITAL ENERGIES
----------------

  NO   OCC          E(Eh)            E(eV)
   0   2.0000     -19.166458      -521.5458
   1   2.0000     -19.149535      -521.0853
   2   2.0000     -19.141566      -520.8685
   3   2.0000     -19.118290      -520.2351
   4   2.0000     -10.291521      -280.0465
   5   2.0000     -10.236188      -278.5408
   6   2.0000     -10.235635      -278.5258
   7   2.0000     -10.232794      -278.4485
   8   2.0000     -10.232250      -278.4337
   9   2.0000     -10.227566      -278.3062
  10   2.0000     -10.194890      -277.4171
  11   2.0000     -10.192204      -277.3440
  12   2.0000     -10.181439      -277.0510
  13   2.0000      -1.067092       -29.0371
  14   2.0000      -1.027535       -27.9607
  15   2.0000      -1.008203       -27.4346
  16   2.0000      -0.996217       -27.1084
  17   2.0000      -0.797185       -21.6925
  18   2.0000      -0.774034       -21.0625
  19   2.0000      -0.768721       -20.9180
  20   2.0000      -0.735861       -20.0238
  21   2.0000      -0.678563       -18.4646
  22   2.0000      -0.607898       -16.5417
  23   2.0000      -0.601197       -16.3594
  24   2.0000      -0.594623       -16.1805
  25   2.0000      -0.582146       -15.8410
  26   2.0000      -0.529093       -14.3973
  27   2.0000      -0.522261       -14.2114
  28   2.0000      -0.500398       -13.6165
  29   2.0000      -0.489265       -13.3136
  30   2.0000      -0.473011       -12.8713
  31   2.0000      -0.460163       -12.5217
  32   2.0000      -0.441112       -12.0033
  33   2.0000      -0.435918       -11.8619
  34   2.0000      -0.430213       -11.7067
  35   2.0000      -0.419130       -11.4051
  36   2.0000      -0.409290       -11.1373
  37   2.0000      -0.389511       -10.5991
  38   2.0000      -0.380637       -10.3577
  39   2.0000      -0.368892       -10.0381
  40   2.0000      -0.365145        -9.9361
  41   2.0000      -0.356812        -9.7094
  42   2.0000      -0.353387        -9.6161
  43   2.0000      -0.342438        -9.3182
  44   2.0000      -0.331587        -9.0229
  45   2.0000      -0.313730        -8.5370
  46   2.0000      -0.297430        -8.0935
  47   2.0000      -0.278300        -7.5729
  48   2.0000      -0.266569        -7.2537
  49   2.0000      -0.249222        -6.7817
  50   2.0000      -0.245847        -6.6898
  51   0.0000       0.056107         1.5267
  52   0.0000       0.076620         2.0849
  53   0.0000       0.090554         2.4641
  54   0.0000       0.096424         2.6238
  55   0.0000       0.108697         2.9578

MULLIKEN ATOMIC CHARGES
-----------------------
   0 C :    0.287085
   1 C :   -0.272978
   2 C :   -0.299199
   3 C :   -0.004555
   4 O :   -0.508904
   5 H :    0.153921
   6 H :    0.154202
   7 H :    0.161446
   8 H :    0.146377
   9 H :    0.164591
  10 H :    0.152676
  11 H :    0.147121
  12 C :   -0.002698
  13 H :    0.138035
  14 H :    0.174471
  15 O :   -0.550083
  16 C :    0.036939
  17 C :    0.122187
  18 C :   -0.298975
  19 C :   -0.020313
  20 O :   -0.518731
  21 H :    0.162810
  22 H :    0.142432
  23 O :   -0.647925
  24 H :    0.151998
  25 H :    0.144990
  26 H :    0.143271
  27 H :    0.149658
  28 H :    0.390150
Sum of atomic charges:   -0.0000000

LOEWDIN ATOMIC CHARGES
----------------------
   0 C :    0.172256
   1 C :   -0.216401
   2 C :   -0.215622
   3 C :   -0.026391
   4 O :   -0.322388
   5 H :    0.101868
   6 H :    0.119219
   7 H :    0.124053
   8 H :    0.116285
   9 H :    0.120208
  10 H :    0.108620
  11 H :    0.105351
  12 C :   -0.041523
  13 H :    0.100702
  14 H :    0.119938
  15 O :   -0.336592
  16 C :    0.014763
  17 C :    0.041800
  18 C :   -0.233631
  19 C :   -0.032122
  20 O :   -0.321370
  21 H :    0.115930
  22 H :    0.101914
  23 O :   -0.439237
  24 H :    0.121563
  25 H :    0.110759
  26 H :    0.102540
  27 H :    0.106462
  28 H :    0.281047

  Mayer bond orders larger than 0.100000
B(  0-C ,  1-C ) :   0.9495 B(  0-C ,  4-O ) :   0.9234 B(  0-C ,  5-H ) :   0.9168
B(  0-C , 15-O ) :   0.8134 B(  1-C ,  2-C ) :   0.9536 B(  1-C ,  6-H ) :   0.9385
B(  1-C ,  7-H ) :   0.9339 B(  2-C ,  3-C ) :   0.9547 B(  2-C ,  8-H ) :   0.9447
B(  2-C ,  9-H ) :   0.9441 B(  3-C ,  4-O ) :   0.8308 B(  3-C , 10-H ) :   0.9353
B(  3-C , 11-H ) :   0.9400 B( 12-C , 13-H ) :   0.9193 B( 12-C , 14-H ) :   0.9247
B( 12-C , 15-O ) :   0.7814 B( 12-C , 16-C ) :   0.9075 B( 16-C , 17-C ) :   0.9164
B( 16-C , 20-O ) :   0.8585 B( 16-C , 21-H ) :   0.9274 B( 17-C , 18-C ) :   0.9057
B( 17-C , 22-H ) :   0.9277 B( 17-C , 23-O ) :   0.9256 B( 18-C , 19-C ) :   0.9399
B( 18-C , 24-H ) :   0.9450 B( 18-C , 25-H ) :   0.9430 B( 19-C , 20-O ) :   0.8314
B( 19-C , 26-H ) :   0.9342 B( 19-C , 27-H ) :   0.9384 B( 23-O , 28-H ) :   0.7196

FINAL SINGLE POINT ENERGY      -652.869374711379

DIPOLE MOMENT
-------------
                                X             Y             Z
Electronic contribution:     -2.35728      -1.09828       1.01729
Nuclear contribution   :      3.07552       1.32977      -0.90823
                        -----------------------------------------
Total Dipole Moment    :      0.71825       0.23149       0.10906
                        -----------------------------------------
Magnitude (a.u.)       :      0.76247
Magnitude (Debye)      :      1.93804

Rotational constants in cm-1:     0.060493     0.013370     0.012161
Rotational constants in MHz :  1813.520015   400.831711   364.591507

                             ****ORCA TERMINATED NORMALLY****
TOTAL RUN TIME: 0 days 0 hours 35 minutes 24 seconds 970 msec
