                         Program Version 4.2.1 -  RELEASE  -
|  1> # Test redundant internal optimization
|  2> #
|  3> ! RKS B3LYP  Opt TightSCF SmallPrint
|  4>
|  5> %basis
|  6>         Basis "6-31G"
|  7> end
|  8>
|  9> %geom
| 10> Constraints
| 11> { D 4  0  19  14  300.0   C } # D for Dihedral angle
| 12> { D 0  19  14  12  240.0   C } # D for Dihedral angle
| 13> { D 0  4  3  2   C } # D for Dihedral angle
| 14> { D 4  3  2  1   C } # D for Dihedral angle
| 15> { D 3  2  1  0   C } # D for Dihedral angle
| 16> { D 2  1  0  4   C } # D for Dihedral angle
| 17> { D 1  0  4  3   C } # D for Dihedral angle
| 18> { D 14  15  16  17   C } # D for Dihedral angle
| 19> { D 15  16  17  12   C } # D for Dihedral angle
| 20> { D 16  17  12  14   C } # D for Dihedral angle
| 21> { D 17  12  14  15   C } # D for Dihedral angle
| 22> { D 12  14  15  16   C } # D for Dihedral angle
| 23> end
| 24> end
| 25>
| 26>
| 27> #%pal
| 28> #nprocs 8
| 29> #end
| 30>
| 31> * xyz 0 1
| 32> C  -21.048   26.222   46.251
| 33> C  -20.361   27.558   45.944
| 34> C  -20.329   28.222   47.341
| 35> C  -20.110   27.022   48.296
| 36> O  -20.473   25.807   47.535
| 37> H  -20.833   25.428   45.533
| 38> H  -19.344   27.382   45.576
| 39> H  -20.898   28.157   45.201
| 40> H  -19.543   28.978   47.434
| 41> H  -21.289   28.710   47.548
| 42> H  -20.733   27.082   49.195
| 43> H  -19.064   26.913   48.597
| 44> C  -24.184   24.794   45.676
| 45> H  -24.923   24.075   46.063
| 46> C  -23.171   25.189   46.758
| 47> C  -22.219   23.971   46.756
| 48> C  -22.186   23.552   45.265
| 49> O  -23.367   24.173   44.627
| 50> H  -24.707   25.634   45.218
| 51> O  -22.472   26.381   46.366
| 52> H  -23.634   25.365   47.735
| 53> H  -21.224   24.209   47.145
| 54> H  -22.635   23.165   47.374
| 55> H  -22.236   22.465   45.132
| 56> H  -21.302   23.931   44.743
| 57> *
| 58>
| 59>                          ****END OF INPUT****
 Total Charge           Charge          ....    0
 Multiplicity           Mult            ....    1
 Number of Electrons    NEL             ....   86
FINAL SINGLE POINT ENERGY      -538.417327247072
FINAL SINGLE POINT ENERGY      -538.431938330217
FINAL SINGLE POINT ENERGY      -538.433901880397
FINAL SINGLE POINT ENERGY      -538.434335848795
FINAL SINGLE POINT ENERGY      -538.434365422540
FINAL SINGLE POINT ENERGY      -538.434371018819
                    ***********************HURRAY********************

CARTESIAN COORDINATES (ANGSTROEM)
---------------------------------
  C    -20.889747   26.285108   46.205095
  C    -20.424032   27.724509   45.974977
  C    -20.413749   28.286447   47.415484
  C    -19.971232   27.072061   48.264397
  O    -20.199155   25.874358   47.414897
  H    -20.593962   25.569138   45.434735
  H    -19.415453   27.711863   45.546532
  H    -21.092396   28.266656   45.303608
  H    -19.738130   29.139386   47.530448
  H    -21.423376   28.602520   47.691881
  H    -20.544317   26.965184   49.189313
  H    -18.903534   27.087157   48.503122
  C    -24.101056   24.865579   45.591206
  H    -24.957381   24.285546   45.965572
  C    -23.099701   25.140696   46.715136
  C    -22.348683   23.799189   46.794918
  C    -22.299314   23.324327   45.323401
  O    -23.339010   24.094018   44.602192
  H    -24.450407   25.776209   45.104329
  O    -22.318228   26.331118   46.354011
  H    -23.593842   25.384825   47.661414
  H    -21.366267   23.896908   47.258851
  H    -22.949281   23.112652   47.402721
  H    -22.511604   22.253657   45.222134
  H    -21.341146   23.535892   44.838626

 Multiplicity           Mult            ....    1
 Number of Electrons    NEL             ....   86
 Basis Dimension        Dim             ....  127

ORBITAL ENERGIES
----------------

  NO   OCC          E(Eh)            E(eV)
   0   2.0000     -19.141976      -520.8796
   1   2.0000     -19.139345      -520.8080
   2   2.0000     -19.127240      -520.4787
   3   2.0000     -10.277864      -279.6749
   4   2.0000     -10.237519      -278.5771
   5   2.0000     -10.226424      -278.2751
   6   2.0000     -10.220449      -278.1126
   7   2.0000     -10.217207      -278.0243
   8   2.0000     -10.184584      -277.1366
   9   2.0000     -10.183597      -277.1098
  10   2.0000     -10.181124      -277.0425
  11   2.0000      -1.051994       -28.6262
  12   2.0000      -1.011487       -27.5240
  13   2.0000      -0.987081       -26.8598
  14   2.0000      -0.792387       -21.5619
  15   2.0000      -0.773284       -21.0421
  16   2.0000      -0.743697       -20.2370
  17   2.0000      -0.717612       -19.5272
  18   2.0000      -0.613780       -16.7018
  19   2.0000      -0.600960       -16.3530
  20   2.0000      -0.593929       -16.1616
  21   2.0000      -0.563286       -15.3278
  22   2.0000      -0.523736       -14.2516
  23   2.0000      -0.495167       -13.4742
  24   2.0000      -0.485550       -13.2125
  25   2.0000      -0.477259       -12.9869
  26   2.0000      -0.453202       -12.3323
  27   2.0000      -0.443548       -12.0696
  28   2.0000      -0.415967       -11.3190
  29   2.0000      -0.413458       -11.2508
  30   2.0000      -0.406223       -11.0539
  31   2.0000      -0.391718       -10.6592
  32   2.0000      -0.367750       -10.0070
  33   2.0000      -0.363851        -9.9009
  34   2.0000      -0.356899        -9.7117
  35   2.0000      -0.355642        -9.6775
  36   2.0000      -0.344325        -9.3696
  37   2.0000      -0.325034        -8.8446
  38   2.0000      -0.304319        -8.2810
  39   2.0000      -0.291651        -7.9362
  40   2.0000      -0.263453        -7.1689
  41   2.0000      -0.252121        -6.8606
  42   2.0000      -0.234263        -6.3746
  43   0.0000       0.077200         2.1007
  44   0.0000       0.101053         2.7498
  45   0.0000       0.106050         2.8858
  46   0.0000       0.107793         2.9332
  47   0.0000       0.118574         3.2266

MULLIKEN ATOMIC CHARGES
-----------------------
   0 C :    0.293598
   1 C :   -0.258876
   2 C :   -0.297039
   3 C :   -0.005299
   4 O :   -0.520058
   5 H :    0.152956
   6 H :    0.144408
   7 H :    0.162143
   8 H :    0.140181
   9 H :    0.161157
  10 H :    0.144285
  11 H :    0.144216
  12 C :    0.001585
  13 H :    0.121414
  14 C :    0.097733
  15 C :   -0.344911
  16 C :   -0.007007
  17 O :   -0.524645
  18 H :    0.164539
  19 O :   -0.536212
  20 H :    0.136953
  21 H :    0.199769
  22 H :    0.146502
  23 H :    0.138584
  24 H :    0.144025
Sum of atomic charges:   -0.0000000

LOEWDIN ATOMIC CHARGES
----------------------
   0 C :    0.175155
   1 C :   -0.211341
   2 C :   -0.215476
   3 C :   -0.029081
   4 O :   -0.334924
   5 H :    0.098956
   6 H :    0.113549
   7 H :    0.126989
   8 H :    0.113237
   9 H :    0.118745
  10 H :    0.103515
  11 H :    0.103177
  12 C :   -0.039142
  13 H :    0.089582
  14 C :    0.045700
  15 C :   -0.247458
  16 C :   -0.033372
  17 O :   -0.335005
  18 H :    0.120944
  19 O :   -0.326646
  20 H :    0.103900
  21 H :    0.142309
  22 H :    0.118299
  23 H :    0.099478
  24 H :    0.098907

  Mayer bond orders larger than 0.100000
B(  0-C ,  1-C ) :   0.9477 B(  0-C ,  4-O ) :   0.8821 B(  0-C ,  5-H ) :   0.9126
B(  0-C , 19-O ) :   0.8643 B(  1-C ,  2-C ) :   0.9560 B(  1-C ,  6-H ) :   0.9406
B(  1-C ,  7-H ) :   0.9359 B(  2-C ,  3-C ) :   0.9553 B(  2-C ,  8-H ) :   0.9452
B(  2-C ,  9-H ) :   0.9443 B(  3-C ,  4-O ) :   0.8334 B(  3-C , 10-H ) :   0.9363
B(  3-C , 11-H ) :   0.9405 B( 12-C , 13-H ) :   0.9134 B( 12-C , 14-C ) :   0.9221
B( 12-C , 17-O ) :   0.8686 B( 12-C , 18-H ) :   0.9318 B( 14-C , 15-C ) :   0.9462
B( 14-C , 19-O ) :   0.8314 B( 14-C , 20-H ) :   0.9319 B( 15-C , 16-C ) :   0.9405
B( 15-C , 21-H ) :   0.9074 B( 15-C , 22-H ) :   0.9361 B( 16-C , 17-O ) :   0.8560
B( 16-C , 23-H ) :   0.9331 B( 16-C , 24-H ) :   0.9315

FINAL SINGLE POINT ENERGY      -538.434371252970

DIPOLE MOMENT
-------------
                                X             Y             Z
Electronic contribution:     -1.42298      -1.32886      -1.79134
Nuclear contribution   :      1.72936       1.68361       2.61538
                        -----------------------------------------
Total Dipole Moment    :      0.30639       0.35475       0.82404
                        -----------------------------------------
Magnitude (a.u.)       :      0.94803
Magnitude (Debye)      :      2.40971

Rotational constants in cm-1:     0.082699     0.022273     0.020956
Rotational constants in MHz :  2479.240387   667.736181   628.251023

                             ****ORCA TERMINATED NORMALLY****
TOTAL RUN TIME: 0 days 0 hours 7 minutes 28 seconds 429 msec
