                         Program Version 4.2.1 -  RELEASE  -
|  1> # Test redundant internal optimization
|  2> #
|  3> ! RKS B3LYP  Opt TightSCF SmallPrint
|  4>
|  5> %basis
|  6>         Basis "6-31G"
|  7> end
|  8>
|  9> %geom
| 10> Constraints
| 11> { D 4  0  19  14  270.0   C } # D for Dihedral angle
| 12> { D 0  19  14  12  240.0   C } # D for Dihedral angle
| 13> { D 0  4  3  2   C } # D for Dihedral angle
| 14> { D 4  3  2  1   C } # D for Dihedral angle
| 15> { D 3  2  1  0   C } # D for Dihedral angle
| 16> { D 2  1  0  4   C } # D for Dihedral angle
| 17> { D 1  0  4  3   C } # D for Dihedral angle
| 18> { D 14  15  16  17   C } # D for Dihedral angle
| 19> { D 15  16  17  12   C } # D for Dihedral angle
| 20> { D 16  17  12  14   C } # D for Dihedral angle
| 21> { D 17  12  14  15   C } # D for Dihedral angle
| 22> { D 12  14  15  16   C } # D for Dihedral angle
| 23> end
| 24> end
| 25>
| 26>
| 27> #%pal
| 28> #nprocs 8
| 29> #end
| 30>
| 31> * xyz 0 1
| 32> C  -21.048   26.222   46.251
| 33> C  -20.361   27.558   45.944
| 34> C  -20.329   28.222   47.341
| 35> C  -20.110   27.022   48.296
| 36> O  -20.473   25.807   47.535
| 37> H  -20.833   25.428   45.533
| 38> H  -19.344   27.382   45.576
| 39> H  -20.898   28.157   45.201
| 40> H  -19.543   28.978   47.434
| 41> H  -21.289   28.710   47.548
| 42> H  -20.733   27.082   49.195
| 43> H  -19.064   26.913   48.597
| 44> C  -24.174   25.438   44.904
| 45> H  -24.956   24.664   44.849
| 46> C  -23.226   25.191   46.082
| 47> C  -22.306   24.083   45.519
| 48> C  -22.185   24.454   44.019
| 49> O  -23.306   25.374   43.722
| 50> H  -24.645   26.423   44.900
| 51> O  -22.472   26.381   46.366
| 52> H  -23.747   24.886   46.997
| 53> H  -21.333   24.043   46.018
| 54> H  -22.782   23.102   45.636
| 55> H  -22.255   23.581   43.363
| 56> H  -21.260   24.993   43.795
| 57> *
| 58>
| 59>                          ****END OF INPUT****
 Total Charge           Charge          ....    0
 Multiplicity           Mult            ....    1
 Number of Electrons    NEL             ....   86
FINAL SINGLE POINT ENERGY      -538.412301325100
FINAL SINGLE POINT ENERGY      -538.429829123841
FINAL SINGLE POINT ENERGY      -538.431597504616
FINAL SINGLE POINT ENERGY      -538.431932581501
FINAL SINGLE POINT ENERGY      -538.431958923917
FINAL SINGLE POINT ENERGY      -538.431962906898
                    ***********************HURRAY********************

CARTESIAN COORDINATES (ANGSTROEM)
---------------------------------
  C    -20.847526   26.278212   46.220687
  C    -20.365720   27.715410   46.011713
  C    -20.442624   28.288365   47.447463
  C    -20.055014   27.075952   48.325522
  O    -20.233350   25.877573   47.471006
  H    -20.510880   25.564910   45.469283
  H    -19.330572   27.700664   45.651304
  H    -20.987570   28.253256   45.294042
  H    -19.773836   29.141038   47.597659
  H    -21.466983   28.607026   47.660366
  H    -20.684028   26.974352   49.213892
  H    -19.003677   27.091909   48.629182
  C    -24.067854   25.536259   44.877393
  H    -24.968613   24.906154   44.890560
  C    -23.128084   25.168354   46.024596
  C    -22.437344   23.910583   45.468619
  C    -22.317208   24.204678   43.952308
  O    -23.278206   25.292617   43.663042
  H    -24.347731   26.589754   44.884911
  O    -22.280235   26.326743   46.319027
  H    -23.672011   24.949375   46.949905
  H    -21.482528   23.690128   45.952754
  H    -23.100215   23.056614   45.645381
  H    -22.566416   23.332202   43.337952
  H    -21.323774   24.561873   43.662434

 Multiplicity           Mult            ....    1
 Number of Electrons    NEL             ....   86
 Basis Dimension        Dim             ....  127

ORBITAL ENERGIES
----------------

  NO   OCC          E(Eh)            E(eV)
   0   2.0000     -19.139254      -520.8056
   1   2.0000     -19.133863      -520.6589
   2   2.0000     -19.132275      -520.6157
   3   2.0000     -10.275929      -279.6223
   4   2.0000     -10.241064      -278.6735
   5   2.0000     -10.226856      -278.2869
   6   2.0000     -10.220921      -278.1254
   7   2.0000     -10.220599      -278.1166
   8   2.0000     -10.191857      -277.3345
   9   2.0000     -10.180570      -277.0274
  10   2.0000     -10.179934      -277.0101
  11   2.0000      -1.049387       -28.5553
  12   2.0000      -1.014892       -27.6166
  13   2.0000      -0.986643       -26.8479
  14   2.0000      -0.791529       -21.5386
  15   2.0000      -0.774515       -21.0756
  16   2.0000      -0.747166       -20.3314
  17   2.0000      -0.717485       -19.5238
  18   2.0000      -0.615248       -16.7417
  19   2.0000      -0.603466       -16.4211
  20   2.0000      -0.592658       -16.1271
  21   2.0000      -0.565185       -15.3795
  22   2.0000      -0.527485       -14.3536
  23   2.0000      -0.500790       -13.6272
  24   2.0000      -0.482435       -13.1277
  25   2.0000      -0.476907       -12.9773
  26   2.0000      -0.454754       -12.3745
  27   2.0000      -0.438444       -11.9307
  28   2.0000      -0.424758       -11.5582
  29   2.0000      -0.417459       -11.3596
  30   2.0000      -0.402621       -10.9559
  31   2.0000      -0.392631       -10.6840
  32   2.0000      -0.369939       -10.0665
  33   2.0000      -0.367765       -10.0074
  34   2.0000      -0.358359        -9.7514
  35   2.0000      -0.351555        -9.5663
  36   2.0000      -0.342131        -9.3098
  37   2.0000      -0.319899        -8.7049
  38   2.0000      -0.306971        -8.3531
  39   2.0000      -0.294457        -8.0126
  40   2.0000      -0.263964        -7.1828
  41   2.0000      -0.248220        -6.7544
  42   2.0000      -0.236324        -6.4307
  43   0.0000       0.075327         2.0497
  44   0.0000       0.099497         2.7075
  45   0.0000       0.102257         2.7826
  46   0.0000       0.108715         2.9583
  47   0.0000       0.114052         3.1035

MULLIKEN ATOMIC CHARGES
-----------------------
   0 C :    0.285142
   1 C :   -0.253247
   2 C :   -0.296140
   3 C :   -0.001100
   4 O :   -0.515619
   5 H :    0.144251
   6 H :    0.140890
   7 H :    0.158875
   8 H :    0.137742
   9 H :    0.161306
  10 H :    0.145419
  11 H :    0.139525
  12 C :   -0.000286
  13 H :    0.123966
  14 C :    0.101995
  15 C :   -0.342388
  16 C :   -0.004643
  17 O :   -0.522159
  18 H :    0.166515
  19 O :   -0.529758
  20 H :    0.143548
  21 H :    0.178116
  22 H :    0.152045
  23 H :    0.141390
  24 H :    0.144615
Sum of atomic charges:   -0.0000000

LOEWDIN ATOMIC CHARGES
----------------------
   0 C :    0.171544
   1 C :   -0.213385
   2 C :   -0.215589
   3 C :   -0.027345
   4 O :   -0.333889
   5 H :    0.098897
   6 H :    0.111545
   7 H :    0.124955
   8 H :    0.111956
   9 H :    0.118741
  10 H :    0.104247
  11 H :    0.100883
  12 C :   -0.039833
  13 H :    0.091126
  14 C :    0.046670
  15 C :   -0.242202
  16 C :   -0.033742
  17 O :   -0.333375
  18 H :    0.122302
  19 O :   -0.322853
  20 H :    0.106375
  21 H :    0.131171
  22 H :    0.121512
  23 H :    0.101104
  24 H :    0.099183

  Mayer bond orders larger than 0.100000
B(  0-C ,  1-C ) :   0.9457 B(  0-C ,  4-O ) :   0.9047 B(  0-C ,  5-H ) :   0.9095
B(  0-C , 19-O ) :   0.8600 B(  1-C ,  2-C ) :   0.9578 B(  1-C ,  6-H ) :   0.9410
B(  1-C ,  7-H ) :   0.9362 B(  2-C ,  3-C ) :   0.9543 B(  2-C ,  8-H ) :   0.9458
B(  2-C ,  9-H ) :   0.9441 B(  3-C ,  4-O ) :   0.8399 B(  3-C , 10-H ) :   0.9359
B(  3-C , 11-H ) :   0.9403 B( 12-C , 13-H ) :   0.9128 B( 12-C , 14-C ) :   0.9212
B( 12-C , 17-O ) :   0.8657 B( 12-C , 18-H ) :   0.9314 B( 14-C , 15-C ) :   0.9431
B( 14-C , 19-O ) :   0.8399 B( 14-C , 20-H ) :   0.9299 B( 15-C , 16-C ) :   0.9384
B( 15-C , 21-H ) :   0.9253 B( 15-C , 22-H ) :   0.9361 B( 16-C , 17-O ) :   0.8608
B( 16-C , 23-H ) :   0.9317 B( 16-C , 24-H ) :   0.9303

FINAL SINGLE POINT ENERGY      -538.431963205029

DIPOLE MOMENT
-------------
                                X             Y             Z
Electronic contribution:     -1.33368      -0.95968      -0.72066
Nuclear contribution   :      1.46964       0.84327       1.10958
                        -----------------------------------------
Total Dipole Moment    :      0.13596      -0.11642       0.38892
                        -----------------------------------------
Magnitude (a.u.)       :      0.42813
Magnitude (Debye)      :      1.08822

Rotational constants in cm-1:     0.082218     0.021382     0.020449
Rotational constants in MHz :  2464.848383   641.025613   613.060491

                             ****ORCA TERMINATED NORMALLY****
TOTAL RUN TIME: 0 days 0 hours 14 minutes 57 seconds 253 msec
