                         Program Version 4.2.0 -  RELEASE  -
|  1> # Test redundant internal optimization
|  2> #
|  3> ! RKS B3LYP  Opt TightSCF SmallPrint
|  4>
|  5> %basis
|  6>         Basis "6-31G"
|  7> end
|  8>
|  9> %geom
| 10> Constraints
| 11> { D 4  0  15  12  90.0   C } # D for Dihedral angle
| 12> { D 0  15  12  16  210.0   C } # D for Dihedral angle
| 13> { D 0  4  3  2   C } # D for Dihedral angle
| 14> { D 4  3  2  1   C } # D for Dihedral angle
| 15> { D 3  2  1  0   C } # D for Dihedral angle
| 16> { D 2  1  0  4   C } # D for Dihedral angle
| 17> { D 1  0  4  3   C } # D for Dihedral angle
| 18> { D 16  20  19  18   C } # D for Dihedral angle
| 19> { D 20  19  18  17   C } # D for Dihedral angle
| 20> { D 19  18  17  16   C } # D for Dihedral angle
| 21> { D 18  17  16  20   C } # D for Dihedral angle
| 22> { D 17  16  20  19   C } # D for Dihedral angle
| 23> { D 15  12  16  20   C } # D for Dihedral angle
| 24> end
| 25> end
| 26>
| 27>
| 28> #%pal
| 29> #nprocs 8
| 30> #end
| 31>
| 32> * xyz 0 1
| 33> C  -21.048   26.222   46.251
| 34> C  -20.361   27.558   45.944
| 35> C  -20.329   28.222   47.341
| 36> C  -20.110   27.022   48.296
| 37> O  -20.473   25.807   47.535
| 38> H  -20.833   25.428   45.533
| 39> H  -19.344   27.382   45.576
| 40> H  -20.898   28.157   45.201
| 41> H  -19.543   28.978   47.434
| 42> H  -21.289   28.710   47.548
| 43> H  -20.733   27.082   49.195
| 44> H  -19.064   26.913   48.597
| 45> C  -23.061   27.816   46.783
| 46> H  -22.289   28.291   47.402
| 47> H  -23.218   28.438   45.893
| 48> O  -22.586   26.394   46.375
| 49> C  -24.390   27.797   47.588
| 50> C  -24.214   27.088   48.936
| 51> C  -23.536   28.191   49.784
| 52> C  -24.193   29.492   49.258
| 53> O  -24.791   29.161   47.947
| 54> H  -25.182   27.385   46.961
| 55> H  -25.193   26.826   49.354
| 56> O  -23.361   25.793   48.838
| 57> H  -23.687   28.052   50.859
| 58> H  -22.456   28.199   49.595
| 59> H  -23.470   30.304   49.128
| 60> H  -25.004   29.840   49.904
| 61> H  -22.376   26.032   48.423
| 62> *
| 63>
| 64>                          ****END OF INPUT****
 Total Charge           Charge          ....    0
 Multiplicity           Mult            ....    1
 Number of Electrons    NEL             ....  102
FINAL SINGLE POINT ENERGY      -652.784329209831
FINAL SINGLE POINT ENERGY      -652.827003140658
FINAL SINGLE POINT ENERGY      -652.848690921732
FINAL SINGLE POINT ENERGY      -652.855082378897
FINAL SINGLE POINT ENERGY      -652.856938966282
FINAL SINGLE POINT ENERGY      -652.857711475281
FINAL SINGLE POINT ENERGY      -652.857949087683
FINAL SINGLE POINT ENERGY      -652.858011753717
FINAL SINGLE POINT ENERGY      -652.858027634072
FINAL SINGLE POINT ENERGY      -652.858038571391
FINAL SINGLE POINT ENERGY      -652.858041591304
                    ***********************HURRAY********************

CARTESIAN COORDINATES (ANGSTROEM)
---------------------------------
  C    -21.145890   26.379453   46.359068
  C    -20.188010   27.460417   45.836036
  C    -19.812519   28.221394   47.142477
  C    -19.785999   27.085699   48.197866
  O    -20.541436   25.953064   47.601752
  H    -21.167813   25.489222   45.729081
  H    -19.310377   26.964121   45.411245
  H    -20.634714   28.100075   45.069951
  H    -18.839494   28.716234   47.062006
  H    -20.548162   28.991048   47.384273
  H    -20.254817   27.360086   49.147047
  H    -18.774076   26.720894   48.391619
  C    -23.105600   27.985247   46.852684
  H    -22.418844   28.559174   47.481094
  H    -23.306534   28.558187   45.941492
  O    -22.552021   26.673274   46.505282
  C    -24.414581   27.753912   47.619107
  C    -24.285526   27.031713   48.974647
  C    -23.777157   28.181900   49.900683
  C    -24.502995   29.421271   49.338180
  O    -24.963716   29.064138   47.964663
  H    -25.139342   27.262138   46.965561
  H    -25.293182   26.744994   49.294853
  O    -23.493245   25.837396   49.035873
  H    -24.013524   27.987133   50.949898
  H    -22.687346   28.263047   49.810779
  H    -23.864671   30.308607   49.272705
  H    -25.399878   29.677020   49.909625
  H    -22.810530   25.829140   48.329456

 Multiplicity           Mult            ....    1
 Number of Electrons    NEL             ....  102
 Basis Dimension        Dim             ....  149

ORBITAL ENERGIES
----------------

  NO   OCC          E(Eh)            E(eV)
   0   2.0000     -19.160820      -521.3924
   1   2.0000     -19.156250      -521.2681
   2   2.0000     -19.140690      -520.8446
   3   2.0000     -19.111772      -520.0577
   4   2.0000     -10.293173      -280.0915
   5   2.0000     -10.240235      -278.6510
   6   2.0000     -10.239896      -278.6417
   7   2.0000     -10.232886      -278.4510
   8   2.0000     -10.229891      -278.3695
   9   2.0000     -10.228028      -278.3188
  10   2.0000     -10.205694      -277.7111
  11   2.0000     -10.205190      -277.6973
  12   2.0000     -10.181346      -277.0485
  13   2.0000      -1.066670       -29.0256
  14   2.0000      -1.025877       -27.9155
  15   2.0000      -1.008874       -27.4529
  16   2.0000      -0.992428       -27.0053
  17   2.0000      -0.801514       -21.8103
  18   2.0000      -0.779791       -21.2192
  19   2.0000      -0.769026       -20.9263
  20   2.0000      -0.738845       -20.1050
  21   2.0000      -0.685209       -18.6455
  22   2.0000      -0.617833       -16.8121
  23   2.0000      -0.603338       -16.4177
  24   2.0000      -0.596502       -16.2316
  25   2.0000      -0.577287       -15.7088
  26   2.0000      -0.529447       -14.4070
  27   2.0000      -0.517712       -14.0877
  28   2.0000      -0.514560       -14.0019
  29   2.0000      -0.487838       -13.2747
  30   2.0000      -0.478712       -13.0264
  31   2.0000      -0.461110       -12.5475
  32   2.0000      -0.441136       -12.0039
  33   2.0000      -0.439006       -11.9459
  34   2.0000      -0.430339       -11.7101
  35   2.0000      -0.424596       -11.5539
  36   2.0000      -0.411476       -11.1968
  37   2.0000      -0.393902       -10.7186
  38   2.0000      -0.391262       -10.6468
  39   2.0000      -0.374140       -10.1809
  40   2.0000      -0.368661       -10.0318
  41   2.0000      -0.361143        -9.8272
  42   2.0000      -0.348403        -9.4805
  43   2.0000      -0.338371        -9.2075
  44   2.0000      -0.327373        -8.9083
  45   2.0000      -0.308826        -8.4036
  46   2.0000      -0.297910        -8.1065
  47   2.0000      -0.278314        -7.5733
  48   2.0000      -0.268000        -7.2927
  49   2.0000      -0.249240        -6.7822
  50   2.0000      -0.238544        -6.4911
  51   0.0000       0.046980         1.2784
  52   0.0000       0.066412         1.8072
  53   0.0000       0.085462         2.3255
  54   0.0000       0.094877         2.5817
  55   0.0000       0.101241         2.7549

MULLIKEN ATOMIC CHARGES
-----------------------
   0 C :    0.299668
   1 C :   -0.286434
   2 C :   -0.315939
   3 C :   -0.018575
   4 O :   -0.502604
   5 H :    0.176577
   6 H :    0.164639
   7 H :    0.155599
   8 H :    0.151337
   9 H :    0.153031
  10 H :    0.155709
  11 H :    0.156069
  12 C :   -0.023433
  13 H :    0.131686
  14 H :    0.158951
  15 O :   -0.545865
  16 C :    0.064426
  17 C :    0.115740
  18 C :   -0.312944
  19 C :   -0.020363
  20 O :   -0.522250
  21 H :    0.166379
  22 H :    0.150601
  23 O :   -0.628353
  24 H :    0.154630
  25 H :    0.139070
  26 H :    0.136912
  27 H :    0.151818
  28 H :    0.393916
Sum of atomic charges:    0.0000000

LOEWDIN ATOMIC CHARGES
----------------------
   0 C :    0.172248
   1 C :   -0.226077
   2 C :   -0.223106
   3 C :   -0.034023
   4 O :   -0.319694
   5 H :    0.116839
   6 H :    0.127422
   7 H :    0.121746
   8 H :    0.119042
   9 H :    0.109794
  10 H :    0.106626
  11 H :    0.109792
  12 C :   -0.046265
  13 H :    0.094385
  14 H :    0.111519
  15 O :   -0.328632
  16 C :    0.021492
  17 C :    0.042680
  18 C :   -0.241664
  19 C :   -0.034279
  20 O :   -0.324381
  21 H :    0.118370
  22 H :    0.108352
  23 O :   -0.421415
  24 H :    0.122740
  25 H :    0.104295
  26 H :    0.098829
  27 H :    0.107269
  28 H :    0.286097

  Mayer bond orders larger than 0.100000
B(  0-C ,  1-C ) :   0.9278 B(  0-C ,  4-O ) :   0.8952 B(  0-C ,  5-H ) :   0.9316
B(  0-C , 15-O ) :   0.8773 B(  1-C ,  2-C ) :   0.9524 B(  1-C ,  6-H ) :   0.9334
B(  1-C ,  7-H ) :   0.9353 B(  2-C ,  3-C ) :   0.9453 B(  2-C ,  8-H ) :   0.9439
B(  2-C ,  9-H ) :   0.9362 B(  3-C ,  4-O ) :   0.8355 B(  3-C , 10-H ) :   0.9290
B(  3-C , 11-H ) :   0.9384 B( 12-C , 13-H ) :   0.9054 B( 12-C , 14-H ) :   0.9280
B( 12-C , 15-O ) :   0.7933 B( 12-C , 16-C ) :   0.9050 B( 16-C , 17-C ) :   0.9029
B( 16-C , 20-O ) :   0.8496 B( 16-C , 21-H ) :   0.9287 B( 17-C , 18-C ) :   0.8976
B( 17-C , 22-H ) :   0.9313 B( 17-C , 23-O ) :   0.9519 B( 18-C , 19-C ) :   0.9375
B( 18-C , 24-H ) :   0.9441 B( 18-C , 25-H ) :   0.9417 B( 19-C , 20-O ) :   0.8327
B( 19-C , 26-H ) :   0.9346 B( 19-C , 27-H ) :   0.9384 B( 23-O , 28-H ) :   0.7247

FINAL SINGLE POINT ENERGY      -652.858042543963

DIPOLE MOMENT
-------------
                                X             Y             Z
Electronic contribution:     -3.94389      -4.61898      -1.63311
Nuclear contribution   :      5.28573       5.92939       1.25526
                        -----------------------------------------
Total Dipole Moment    :      1.34184       1.31041      -0.37785
                        -----------------------------------------
Magnitude (a.u.)       :      1.91324
Magnitude (Debye)      :      4.86307

Rotational constants in cm-1:     0.045035     0.016948     0.016399
Rotational constants in MHz :  1350.127918   508.081742   491.629723

                             ****ORCA TERMINATED NORMALLY****
TOTAL RUN TIME: 0 days 2 hours 1 minutes 28 seconds 239 msec
