                         Program Version 4.2.0 -  RELEASE  -
|  1> # Test redundant internal optimization
|  2> #
|  3> ! RKS B3LYP  Opt TightSCF SmallPrint
|  4>
|  5> %basis
|  6>         Basis "6-31G"
|  7> end
|  8>
|  9> %geom
| 10> Constraints
| 11> { D 4  0  15  12  270.0   C } # D for Dihedral angle
| 12> { D 0  15  12  16  60.0   C } # D for Dihedral angle
| 13> { D 0  4  3  2   C } # D for Dihedral angle
| 14> { D 4  3  2  1   C } # D for Dihedral angle
| 15> { D 3  2  1  0   C } # D for Dihedral angle
| 16> { D 2  1  0  4   C } # D for Dihedral angle
| 17> { D 1  0  4  3   C } # D for Dihedral angle
| 18> { D 16  20  19  18   C } # D for Dihedral angle
| 19> { D 20  19  18  17   C } # D for Dihedral angle
| 20> { D 19  18  17  16   C } # D for Dihedral angle
| 21> { D 18  17  16  20   C } # D for Dihedral angle
| 22> { D 17  16  20  19   C } # D for Dihedral angle
| 23> { D 15  12  16  20   C } # D for Dihedral angle
| 24> end
| 25> end
| 26>
| 27>
| 28> #%pal
| 29> #nprocs 8
| 30> #end
| 31>
| 32> * xyz 0 1
| 33> C  -21.048   26.222   46.251
| 34> C  -20.361   27.558   45.944
| 35> C  -20.329   28.222   47.341
| 36> C  -20.110   27.022   48.296
| 37> O  -20.473   25.807   47.535
| 38> H  -20.833   25.428   45.533
| 39> H  -19.344   27.382   45.576
| 40> H  -20.898   28.157   45.201
| 41> H  -19.543   28.978   47.434
| 42> H  -21.289   28.710   47.548
| 43> H  -20.733   27.082   49.195
| 44> H  -19.064   26.913   48.597
| 45> C  -23.420   25.119   46.072
| 46> H  -24.487   25.350   46.179
| 47> H  -23.244   24.780   45.043
| 48> O  -22.586   26.394   46.375
| 49> C  -23.078   23.938   47.023
| 50> C  -23.833   22.666   46.623
| 51> C  -22.982   22.157   45.435
| 52> C  -21.539   22.543   45.845
| 53> O  -21.663   23.573   46.899
| 54> H  -23.238   24.253   48.056
| 55> O  -23.810   21.643   47.792
| 56> H  -24.877   22.853   46.349
| 57> H  -23.093   21.081   45.263
| 58> H  -23.274   22.675   44.514
| 59> H  -20.962   22.954   45.009
| 60> H  -20.989   21.703   46.278
| 61> H  -22.773   21.440   48.083
| 62> *
| 63>
| 64>                          ****END OF INPUT****
 Total Charge           Charge          ....    0
 Multiplicity           Mult            ....    1
 Number of Electrons    NEL             ....  102
FINAL SINGLE POINT ENERGY      -652.828562006076
FINAL SINGLE POINT ENERGY      -652.853012355356
FINAL SINGLE POINT ENERGY      -652.857747216487
FINAL SINGLE POINT ENERGY      -652.859380131512
FINAL SINGLE POINT ENERGY      -652.859543243497
FINAL SINGLE POINT ENERGY      -652.859572575076
                    ***********************HURRAY********************

CARTESIAN COORDINATES (ANGSTROEM)
---------------------------------
  C    -20.928937   26.241182   46.227083
  C    -20.452981   27.672253   45.974526
  C    -20.482613   28.273846   47.400159
  C    -20.068593   27.080141   48.287698
  O    -20.276728   25.865390   47.461145
  H    -20.636931   25.496289   45.483763
  H    -19.429773   27.646353   45.581699
  H    -21.094140   28.202452   45.267431
  H    -19.810676   29.130440   47.510965
  H    -21.499798   28.598011   47.638467
  H    -20.668323   26.995922   49.197843
  H    -19.007903   27.099130   48.556846
  C    -23.193506   25.130896   46.098858
  H    -24.214995   25.485337   46.270955
  H    -23.102100   24.861314   45.033343
  O    -22.368718   26.295831   46.355876
  C    -22.944823   23.892550   46.963244
  C    -23.838268   22.695764   46.605249
  C    -23.055666   22.060672   45.424573
  C    -21.576464   22.300379   45.815091
  O    -21.579370   23.372581   46.842118
  H    -23.062667   24.168718   48.015953
  O    -23.952780   21.780639   47.728963
  H    -24.863590   22.965312   46.347446
  H    -23.305436   21.001919   45.320897
  H    -23.309446   22.566419   44.486025
  H    -20.960173   22.617494   44.968115
  H    -21.113488   21.419904   46.270740
  H    -23.074113   21.685861   48.153927

 Multiplicity           Mult            ....    1
 Number of Electrons    NEL             ....  102
 Basis Dimension        Dim             ....  149

ORBITAL ENERGIES
----------------

  NO   OCC          E(Eh)            E(eV)
   0   2.0000     -19.141318      -520.8617
   1   2.0000     -19.139161      -520.8030
   2   2.0000     -19.138006      -520.7716
   3   2.0000     -19.125762      -520.4384
   4   2.0000     -10.269622      -279.4506
   5   2.0000     -10.244270      -278.7608
   6   2.0000     -10.233775      -278.4752
   7   2.0000     -10.232317      -278.4355
   8   2.0000     -10.230415      -278.3838
   9   2.0000     -10.214385      -277.9475
  10   2.0000     -10.190752      -277.3045
  11   2.0000     -10.177269      -276.9376
  12   2.0000     -10.176848      -276.9261
  13   2.0000      -1.045224       -28.4420
  14   2.0000      -1.034163       -28.1410
  15   2.0000      -1.005695       -27.3663
  16   2.0000      -0.985985       -26.8300
  17   2.0000      -0.787249       -21.4221
  18   2.0000      -0.778174       -21.1752
  19   2.0000      -0.763863       -20.7858
  20   2.0000      -0.726431       -19.7672
  21   2.0000      -0.672551       -18.3010
  22   2.0000      -0.604495       -16.4491
  23   2.0000      -0.598081       -16.2746
  24   2.0000      -0.588875       -16.0241
  25   2.0000      -0.572804       -15.5868
  26   2.0000      -0.523416       -14.2429
  27   2.0000      -0.509476       -13.8636
  28   2.0000      -0.493460       -13.4277
  29   2.0000      -0.479767       -13.0551
  30   2.0000      -0.471611       -12.8332
  31   2.0000      -0.455753       -12.4017
  32   2.0000      -0.447737       -12.1835
  33   2.0000      -0.435852       -11.8601
  34   2.0000      -0.418995       -11.4014
  35   2.0000      -0.409008       -11.1297
  36   2.0000      -0.394544       -10.7361
  37   2.0000      -0.391103       -10.6424
  38   2.0000      -0.374607       -10.1936
  39   2.0000      -0.366862        -9.9828
  40   2.0000      -0.357707        -9.7337
  41   2.0000      -0.348254        -9.4765
  42   2.0000      -0.340296        -9.2599
  43   2.0000      -0.334331        -9.0976
  44   2.0000      -0.318248        -8.6600
  45   2.0000      -0.302371        -8.2279
  46   2.0000      -0.288245        -7.8436
  47   2.0000      -0.272191        -7.4067
  48   2.0000      -0.264483        -7.1969
  49   2.0000      -0.250485        -6.8160
  50   2.0000      -0.231563        -6.3011
  51   0.0000       0.062156         1.6913
  52   0.0000       0.085719         2.3325
  53   0.0000       0.090332         2.4581
  54   0.0000       0.100893         2.7454
  55   0.0000       0.107897         2.9360

MULLIKEN ATOMIC CHARGES
-----------------------
   0 C :    0.303907
   1 C :   -0.257948
   2 C :   -0.296840
   3 C :   -0.004014
   4 O :   -0.490165
   5 H :    0.139123
   6 H :    0.141620
   7 H :    0.148761
   8 H :    0.135621
   9 H :    0.159658
  10 H :    0.143153
  11 H :    0.138115
  12 C :   -0.001063
  13 H :    0.151631
  14 H :    0.119612
  15 O :   -0.528039
  16 C :    0.062948
  17 C :    0.076631
  18 C :   -0.289116
  19 C :   -0.036142
  20 O :   -0.499234
  21 H :    0.168762
  22 O :   -0.601902
  23 H :    0.150624
  24 H :    0.162695
  25 H :    0.137878
  26 H :    0.145879
  27 H :    0.149936
  28 H :    0.367907
Sum of atomic charges:   -0.0000000

LOEWDIN ATOMIC CHARGES
----------------------
   0 C :    0.177794
   1 C :   -0.217228
   2 C :   -0.216517
   3 C :   -0.030292
   4 O :   -0.311367
   5 H :    0.098307
   6 H :    0.111872
   7 H :    0.119691
   8 H :    0.110667
   9 H :    0.117812
  10 H :    0.103201
  11 H :    0.100167
  12 C :   -0.037872
  13 H :    0.116890
  14 H :    0.087534
  15 O :   -0.328091
  16 C :    0.004819
  17 C :    0.036424
  18 C :   -0.240488
  19 C :   -0.041304
  20 O :   -0.313345
  21 H :    0.120452
  22 O :   -0.413759
  23 H :    0.115088
  24 H :    0.126871
  25 H :    0.110324
  26 H :    0.102831
  27 H :    0.104369
  28 H :    0.285150

  Mayer bond orders larger than 0.100000
B(  0-C ,  1-C ) :   0.9451 B(  0-C ,  4-O ) :   0.9166 B(  0-C ,  5-H ) :   0.9215
B(  0-C , 15-O ) :   0.8358 B(  1-C ,  2-C ) :   0.9579 B(  1-C ,  6-H ) :   0.9409
B(  1-C ,  7-H ) :   0.9376 B(  2-C ,  3-C ) :   0.9524 B(  2-C ,  8-H ) :   0.9459
B(  2-C ,  9-H ) :   0.9446 B(  3-C ,  4-O ) :   0.8481 B(  3-C , 10-H ) :   0.9356
B(  3-C , 11-H ) :   0.9400 B( 12-C , 13-H ) :   0.9314 B( 12-C , 14-H ) :   0.9230
B( 12-C , 15-O ) :   0.8717 B( 12-C , 16-C ) :   0.8828 B( 16-C , 17-C ) :   0.8943
B( 16-C , 20-O ) :   0.8576 B( 16-C , 21-H ) :   0.9227 B( 17-C , 18-C ) :   0.9106
B( 17-C , 22-O ) :   0.8951 B( 17-C , 23-H ) :   0.9336 B( 18-C , 19-C ) :   0.9384
B( 18-C , 24-H ) :   0.9377 B( 18-C , 25-H ) :   0.9341 B( 19-C , 20-O ) :   0.8513
B( 19-C , 26-H ) :   0.9333 B( 19-C , 27-H ) :   0.9372 B( 22-O , 28-H ) :   0.7924

FINAL SINGLE POINT ENERGY      -652.859574911696

DIPOLE MOMENT
-------------
                                X             Y             Z
Electronic contribution:     -1.13945      -2.75545       2.34212
Nuclear contribution   :      1.26338       3.01531      -3.21930
                        -----------------------------------------
Total Dipole Moment    :      0.12393       0.25985      -0.87718
                        -----------------------------------------
Magnitude (a.u.)       :      0.92322
Magnitude (Debye)      :      2.34663

Rotational constants in cm-1:     0.062094     0.013359     0.013177
Rotational constants in MHz :  1861.522441   400.483884   395.041764

                             ****ORCA TERMINATED NORMALLY****
TOTAL RUN TIME: 0 days 1 hours 55 minutes 4 seconds 958 msec
