                         Program Version 4.2.1 -  RELEASE  -
|  1> # Test redundant internal optimization
|  2> #
|  3> ! RKS B3LYP  Opt TightSCF SmallPrint
|  4>
|  5> %basis
|  6>         Basis "6-31G"
|  7> end
|  8>
|  9> %geom
| 10> Constraints
| 11> { D 4  0  19  14  75.0   C } # D for Dihedral angle
| 12> { D 0  19  14  12  165.0   C } # D for Dihedral angle
| 13> { D 0  4  3  2   C } # D for Dihedral angle
| 14> { D 4  3  2  1   C } # D for Dihedral angle
| 15> { D 3  2  1  0   C } # D for Dihedral angle
| 16> { D 2  1  0  4   C } # D for Dihedral angle
| 17> { D 1  0  4  3   C } # D for Dihedral angle
| 18> { D 14  15  16  17   C } # D for Dihedral angle
| 19> { D 15  16  17  12   C } # D for Dihedral angle
| 20> { D 16  17  12  14   C } # D for Dihedral angle
| 21> { D 17  12  14  15   C } # D for Dihedral angle
| 22> { D 12  14  15  16   C } # D for Dihedral angle
| 23> end
| 24> end
| 25>
| 26>
| 27> #%pal
| 28> #nprocs 8
| 29> #end
| 30>
| 31> * xyz 0 1
| 32> C  -21.048   26.222   46.251
| 33> C  -20.361   27.558   45.944
| 34> C  -20.329   28.222   47.341
| 35> C  -20.110   27.022   48.296
| 36> O  -20.473   25.807   47.535
| 37> H  -20.833   25.428   45.533
| 38> H  -19.344   27.382   45.576
| 39> H  -20.898   28.157   45.201
| 40> H  -19.543   28.978   47.434
| 41> H  -21.289   28.710   47.548
| 42> H  -20.733   27.082   49.195
| 43> H  -19.064   26.913   48.597
| 44> C  -24.369   27.840   46.809
| 45> H  -24.640   28.874   47.076
| 46> C  -22.881   27.571   47.060
| 47> C  -22.856   27.347   48.590
| 48> C  -24.203   26.634   48.864
| 49> O  -25.061   26.888   47.685
| 50> H  -24.701   27.635   45.790
| 51> O  -22.472   26.381   46.366
| 52> H  -22.235   28.396   46.740
| 53> H  -21.996   26.756   48.919
| 54> H  -22.817   28.312   49.111
| 55> H  -24.705   27.013   49.761
| 56> H  -24.091   25.549   48.953
| 57> *
| 58>
| 59>                          ****END OF INPUT****
 Total Charge           Charge          ....    0
 Multiplicity           Mult            ....    1
 Number of Electrons    NEL             ....   86
FINAL SINGLE POINT ENERGY      -538.363037141644
FINAL SINGLE POINT ENERGY      -538.420732918514
FINAL SINGLE POINT ENERGY      -538.424829938604
FINAL SINGLE POINT ENERGY      -538.425730887706
FINAL SINGLE POINT ENERGY      -538.425956893740
FINAL SINGLE POINT ENERGY      -538.426087444246
FINAL SINGLE POINT ENERGY      -538.426105216180
FINAL SINGLE POINT ENERGY      -538.426106620196
                    ***********************HURRAY********************

CARTESIAN COORDINATES (ANGSTROEM)
---------------------------------
  C    -21.080755   26.366257   46.377873
  C    -20.215838   27.547199   45.907757
  C    -19.839965   28.233412   47.255694
  C    -19.698762   27.023911   48.216691
  O    -20.398161   25.891850   47.565281
  H    -21.053065   25.524418   45.684006
  H    -19.322594   27.150781   45.415009
  H    -20.738099   28.207518   45.209956
  H    -18.908830   28.804560   47.186363
  H    -20.624280   28.919617   47.585505
  H    -20.138198   27.205059   49.202201
  H    -18.656525   26.717644   48.346755
  C    -24.570530   27.740887   46.780460
  H    -25.011572   28.720413   47.020366
  C    -23.102071   27.697083   47.204210
  C    -23.221127   27.434316   48.719233
  C    -24.460934   26.515246   48.823531
  O    -25.201753   26.671638   47.552626
  H    -24.710616   27.514375   45.722756
  O    -22.501276   26.569367   46.501164
  H    -22.582666   28.631564   46.965381
  H    -22.327568   26.959220   49.125834
  H    -23.385140   28.383646   49.243567
  H    -25.116517   26.785971   49.658806
  H    -24.185157   25.461047   48.903976

 Multiplicity           Mult            ....    1
 Number of Electrons    NEL             ....   86
 Basis Dimension        Dim             ....  127

ORBITAL ENERGIES
----------------

  NO   OCC          E(Eh)            E(eV)
   0   2.0000     -19.144605      -520.9512
   1   2.0000     -19.143623      -520.9245
   2   2.0000     -19.124441      -520.4025
   3   2.0000     -10.280093      -279.7355
   4   2.0000     -10.242630      -278.7161
   5   2.0000     -10.232902      -278.4514
   6   2.0000     -10.220703      -278.1195
   7   2.0000     -10.216888      -278.0157
   8   2.0000     -10.197569      -277.4900
   9   2.0000     -10.194748      -277.4132
  10   2.0000     -10.184504      -277.1344
  11   2.0000      -1.053030       -28.6544
  12   2.0000      -1.013795       -27.5868
  13   2.0000      -0.992350       -27.0032
  14   2.0000      -0.792338       -21.5606
  15   2.0000      -0.786102       -21.3909
  16   2.0000      -0.742074       -20.1929
  17   2.0000      -0.723570       -19.6893
  18   2.0000      -0.623508       -16.9665
  19   2.0000      -0.607951       -16.5432
  20   2.0000      -0.597009       -16.2454
  21   2.0000      -0.563451       -15.3323
  22   2.0000      -0.524776       -14.2799
  23   2.0000      -0.507414       -13.8074
  24   2.0000      -0.486454       -13.2371
  25   2.0000      -0.481490       -13.1020
  26   2.0000      -0.452894       -12.3239
  27   2.0000      -0.450016       -12.2455
  28   2.0000      -0.427828       -11.6418
  29   2.0000      -0.416298       -11.3280
  30   2.0000      -0.409811       -11.1515
  31   2.0000      -0.388690       -10.5768
  32   2.0000      -0.378981       -10.3126
  33   2.0000      -0.367825       -10.0090
  34   2.0000      -0.365598        -9.9484
  35   2.0000      -0.364682        -9.9235
  36   2.0000      -0.344907        -9.3854
  37   2.0000      -0.319196        -8.6858
  38   2.0000      -0.304171        -8.2769
  39   2.0000      -0.292518        -7.9598
  40   2.0000      -0.268554        -7.3077
  41   2.0000      -0.257211        -6.9991
  42   2.0000      -0.230315        -6.2672
  43   0.0000       0.065050         1.7701
  44   0.0000       0.086278         2.3477
  45   0.0000       0.094854         2.5811
  46   0.0000       0.112296         3.0557
  47   0.0000       0.114749         3.1225

MULLIKEN ATOMIC CHARGES
-----------------------
   0 C :    0.304723
   1 C :   -0.282631
   2 C :   -0.313924
   3 C :   -0.011781
   4 O :   -0.504198
   5 H :    0.169581
   6 H :    0.158205
   7 H :    0.148394
   8 H :    0.147383
   9 H :    0.147788
  10 H :    0.137846
  11 H :    0.149839
  12 C :    0.010529
  13 H :    0.119813
  14 C :    0.059177
  15 C :   -0.298809
  16 C :    0.001113
  17 O :   -0.518189
  18 H :    0.166293
  19 O :   -0.513246
  20 H :    0.123473
  21 H :    0.170899
  22 H :    0.133159
  23 H :    0.132760
  24 H :    0.161802
Sum of atomic charges:   -0.0000000

LOEWDIN ATOMIC CHARGES
----------------------
   0 C :    0.174400
   1 C :   -0.229603
   2 C :   -0.223919
   3 C :   -0.034798
   4 O :   -0.322411
   5 H :    0.114913
   6 H :    0.123523
   7 H :    0.117824
   8 H :    0.116582
   9 H :    0.107442
  10 H :    0.097828
  11 H :    0.105365
  12 C :   -0.032893
  13 H :    0.089101
  14 C :    0.034395
  15 C :   -0.237091
  16 C :   -0.027024
  17 O :   -0.327426
  18 H :    0.122437
  19 O :   -0.309601
  20 H :    0.093542
  21 H :    0.128709
  22 H :    0.109039
  23 H :    0.097353
  24 H :    0.112313

  Mayer bond orders larger than 0.100000
B(  0-C ,  1-C ) :   0.9178 B(  0-C ,  4-O ) :   0.8919 B(  0-C ,  5-H ) :   0.9366
B(  0-C , 19-O ) :   0.9106 B(  1-C ,  2-C ) :   0.9551 B(  1-C ,  6-H ) :   0.9353
B(  1-C ,  7-H ) :   0.9363 B(  2-C ,  3-C ) :   0.9475 B(  2-C ,  8-H ) :   0.9450
B(  2-C ,  9-H ) :   0.9399 B(  3-C ,  4-O ) :   0.8488 B(  3-C , 10-H ) :   0.9271
B(  3-C , 11-H ) :   0.9393 B( 12-C , 13-H ) :   0.9157 B( 12-C , 14-C ) :   0.9347
B( 12-C , 17-O ) :   0.8745 B( 12-C , 18-H ) :   0.9304 B( 14-C , 15-C ) :   0.9341
B( 14-C , 19-O ) :   0.8302 B( 14-C , 20-H ) :   0.9120 B( 15-C , 16-C ) :   0.9459
B( 15-C , 21-H ) :   0.9273 B( 15-C , 22-H ) :   0.9365 B( 16-C , 17-O ) :   0.8579
B( 16-C , 23-H ) :   0.9329 B( 16-C , 24-H ) :   0.9343

FINAL SINGLE POINT ENERGY      -538.426105018835

DIPOLE MOMENT
-------------
                                X             Y             Z
Electronic contribution:     -2.85537      -4.35614      -1.90233
Nuclear contribution   :      4.01804       5.86845       2.10711
                        -----------------------------------------
Total Dipole Moment    :      1.16267       1.51231       0.20479
                        -----------------------------------------
Magnitude (a.u.)       :      1.91854
Magnitude (Debye)      :      4.87655

Rotational constants in cm-1:     0.075763     0.023372     0.021867
Rotational constants in MHz :  2271.329920   700.664768   655.558802

                             ****ORCA TERMINATED NORMALLY****
TOTAL RUN TIME: 0 days 0 hours 10 minutes 0 seconds 801 msec
