                         Program Version 4.2.0 -  RELEASE  -
|  1> # Test redundant internal optimization
|  2> #
|  3> ! RKS B3LYP  Opt TightSCF SmallPrint
|  4>
|  5> %basis
|  6>         Basis "6-31G"
|  7> end
|  8>
|  9> %geom
| 10> Constraints
| 11> { D 4  0  15  12  270.0   C } # D for Dihedral angle
| 12> { D 0  15  12  16  165.0   C } # D for Dihedral angle
| 13> { D 0  4  3  2   C } # D for Dihedral angle
| 14> { D 4  3  2  1   C } # D for Dihedral angle
| 15> { D 3  2  1  0   C } # D for Dihedral angle
| 16> { D 2  1  0  4   C } # D for Dihedral angle
| 17> { D 1  0  4  3   C } # D for Dihedral angle
| 18> { D 16  20  19  18   C } # D for Dihedral angle
| 19> { D 20  19  18  17   C } # D for Dihedral angle
| 20> { D 19  18  17  16   C } # D for Dihedral angle
| 21> { D 18  17  16  20   C } # D for Dihedral angle
| 22> { D 17  16  20  19   C } # D for Dihedral angle
| 23> { D 15  12  16  20   C } # D for Dihedral angle
| 24> end
| 25> end
| 26>
| 27>
| 28> #%pal
| 29> #nprocs 8
| 30> #end
| 31>
| 32> * xyz 0 1
| 33> C  -21.048   26.222   46.251
| 34> C  -20.361   27.558   45.944
| 35> C  -20.329   28.222   47.341
| 36> C  -20.110   27.022   48.296
| 37> O  -20.473   25.807   47.535
| 38> H  -20.833   25.428   45.533
| 39> H  -19.344   27.382   45.576
| 40> H  -20.898   28.157   45.201
| 41> H  -19.543   28.978   47.434
| 42> H  -21.289   28.710   47.548
| 43> H  -20.733   27.082   49.195
| 44> H  -19.064   26.913   48.597
| 45> C  -23.420   25.119   46.072
| 46> H  -23.429   24.941   44.990
| 47> H  -22.972   24.243   46.560
| 48> O  -22.586   26.394   46.375
| 49> C  -24.890   25.232   46.562
| 50> C  -25.645   26.330   45.804
| 51> C  -25.982   25.617   44.472
| 52> C  -26.238   24.154   44.912
| 53> O  -25.630   24.004   46.251
| 54> H  -24.898   25.345   47.647
| 55> O  -26.944   26.706   46.568
| 56> H  -25.054   27.241   45.662
| 57> H  -26.844   26.057   43.962
| 58> H  -25.125   25.672   43.790
| 59> H  -25.786   23.426   44.230
| 60> H  -27.303   23.929   45.014
| 61> H  -27.555   25.809   46.722
| 62> *
| 63>
| 64>                          ****END OF INPUT****
 Total Charge           Charge          ....    0
 Multiplicity           Mult            ....    1
 Number of Electrons    NEL             ....  102
FINAL SINGLE POINT ENERGY      -652.839419698968
FINAL SINGLE POINT ENERGY      -652.863452583716
FINAL SINGLE POINT ENERGY      -652.867268351864
FINAL SINGLE POINT ENERGY      -652.867926540063
FINAL SINGLE POINT ENERGY      -652.868030837732
FINAL SINGLE POINT ENERGY      -652.868043116762
                    ***********************HURRAY********************

CARTESIAN COORDINATES (ANGSTROEM)
---------------------------------
  C    -21.099309   26.123830   46.219254
  C    -20.538317   27.517246   45.934787
  C    -20.606475   28.178379   47.331513
  C    -20.298643   27.004423   48.287294
  O    -20.529080   25.767401   47.498648
  H    -20.811398   25.337828   45.515144
  H    -19.500564   27.427183   45.593618
  H    -21.117908   28.047338   45.176405
  H    -19.895983   29.002948   47.442501
  H    -21.615276   28.563390   47.506317
  H    -20.946678   26.986502   49.167068
  H    -19.252901   26.979278   48.607887
  C    -23.289379   25.020839   46.020326
  H    -23.265226   24.794145   44.944952
  H    -22.861534   24.172717   46.567201
  O    -22.538222   26.240593   46.290487
  C    -24.715914   25.256830   46.508321
  C    -25.471838   26.381605   45.787237
  C    -25.927476   25.669970   44.487791
  C    -26.218019   24.223319   44.959148
  O    -25.526613   24.058757   46.262982
  H    -24.702918   25.425642   47.588266
  O    -26.604805   26.834678   46.579894
  H    -24.858099   27.264044   45.615067
  H    -26.805110   26.164261   44.064263
  H    -25.126606   25.693115   43.740270
  H    -25.847599   23.464814   44.262607
  H    -27.283347   24.044103   45.135269
  H    -27.070764   26.054821   46.949481

 Multiplicity           Mult            ....    1
 Number of Electrons    NEL             ....  102
 Basis Dimension        Dim             ....  149

ORBITAL ENERGIES
----------------

  NO   OCC          E(Eh)            E(eV)
   0   2.0000     -19.147432      -521.0281
   1   2.0000     -19.144154      -520.9389
   2   2.0000     -19.138830      -520.7940
   3   2.0000     -19.134385      -520.6731
   4   2.0000     -10.280485      -279.7462
   5   2.0000     -10.234974      -278.5078
   6   2.0000     -10.232080      -278.4290
   7   2.0000     -10.231618      -278.4165
   8   2.0000     -10.230823      -278.3948
   9   2.0000     -10.224088      -278.2116
  10   2.0000     -10.187511      -277.2163
  11   2.0000     -10.185770      -277.1689
  12   2.0000     -10.184588      -277.1367
  13   2.0000      -1.055017       -28.7085
  14   2.0000      -1.035013       -28.1641
  15   2.0000      -1.003419       -27.3044
  16   2.0000      -0.996165       -27.1070
  17   2.0000      -0.790012       -21.4973
  18   2.0000      -0.777980       -21.1699
  19   2.0000      -0.767038       -20.8722
  20   2.0000      -0.728811       -19.8319
  21   2.0000      -0.673510       -18.3271
  22   2.0000      -0.603706       -16.4277
  23   2.0000      -0.598057       -16.2740
  24   2.0000      -0.588872       -16.0240
  25   2.0000      -0.584915       -15.9164
  26   2.0000      -0.521791       -14.1987
  27   2.0000      -0.518928       -14.1207
  28   2.0000      -0.496432       -13.5086
  29   2.0000      -0.487512       -13.2659
  30   2.0000      -0.469012       -12.7625
  31   2.0000      -0.456196       -12.4137
  32   2.0000      -0.451724       -12.2920
  33   2.0000      -0.437381       -11.9018
  34   2.0000      -0.425866       -11.5884
  35   2.0000      -0.411893       -11.2082
  36   2.0000      -0.400870       -10.9082
  37   2.0000      -0.391752       -10.6601
  38   2.0000      -0.374763       -10.1978
  39   2.0000      -0.366090        -9.9618
  40   2.0000      -0.359242        -9.7755
  41   2.0000      -0.355720        -9.6796
  42   2.0000      -0.348584        -9.4855
  43   2.0000      -0.332350        -9.0437
  44   2.0000      -0.322639        -8.7794
  45   2.0000      -0.307584        -8.3698
  46   2.0000      -0.302284        -8.2256
  47   2.0000      -0.275443        -7.4952
  48   2.0000      -0.264868        -7.2074
  49   2.0000      -0.250575        -6.8185
  50   2.0000      -0.246833        -6.7167
  51   0.0000       0.064329         1.7505
  52   0.0000       0.078894         2.1468
  53   0.0000       0.095606         2.6016
  54   0.0000       0.100612         2.7378
  55   0.0000       0.106660         2.9024

MULLIKEN ATOMIC CHARGES
-----------------------
   0 C :    0.286467
   1 C :   -0.257043
   2 C :   -0.299291
   3 C :   -0.001922
   4 O :   -0.507258
   5 H :    0.142079
   6 H :    0.144843
   7 H :    0.150995
   8 H :    0.141098
   9 H :    0.165132
  10 H :    0.150571
  11 H :    0.141952
  12 C :   -0.004493
  13 H :    0.123840
  14 H :    0.164633
  15 O :   -0.528123
  16 C :    0.054244
  17 C :    0.089517
  18 C :   -0.303370
  19 C :   -0.033199
  20 O :   -0.526715
  21 H :    0.169499
  22 O :   -0.602990
  23 H :    0.173375
  24 H :    0.162239
  25 H :    0.146606
  26 H :    0.147218
  27 H :    0.147471
  28 H :    0.362622
Sum of atomic charges:   -0.0000000

LOEWDIN ATOMIC CHARGES
----------------------
   0 C :    0.173601
   1 C :   -0.216394
   2 C :   -0.215862
   3 C :   -0.026884
   4 O :   -0.325980
   5 H :    0.098798
   6 H :    0.113700
   7 H :    0.121034
   8 H :    0.113714
   9 H :    0.120453
  10 H :    0.107270
  11 H :    0.102485
  12 C :   -0.039871
  13 H :    0.089992
  14 H :    0.114245
  15 O :   -0.334575
  16 C :    0.018096
  17 C :    0.037923
  18 C :   -0.242975
  19 C :   -0.039142
  20 O :   -0.330327
  21 H :    0.120735
  22 O :   -0.415035
  23 H :    0.126128
  24 H :    0.126657
  25 H :    0.113751
  26 H :    0.104050
  27 H :    0.102888
  28 H :    0.281528

  Mayer bond orders larger than 0.100000
B(  0-C ,  1-C ) :   0.9476 B(  0-C ,  4-O ) :   0.9198 B(  0-C ,  5-H ) :   0.9206
B(  0-C , 15-O ) :   0.8486 B(  1-C ,  2-C ) :   0.9573 B(  1-C ,  6-H ) :   0.9397
B(  1-C ,  7-H ) :   0.9374 B(  2-C ,  3-C ) :   0.9545 B(  2-C ,  8-H ) :   0.9452
B(  2-C ,  9-H ) :   0.9436 B(  3-C ,  4-O ) :   0.8360 B(  3-C , 10-H ) :   0.9353
B(  3-C , 11-H ) :   0.9402 B( 12-C , 13-H ) :   0.9206 B( 12-C , 14-H ) :   0.9140
B( 12-C , 15-O ) :   0.8212 B( 12-C , 16-C ) :   0.9101 B( 16-C , 17-C ) :   0.9123
B( 16-C , 20-O ) :   0.8442 B( 16-C , 21-H ) :   0.9242 B( 17-C , 18-C ) :   0.9121
B( 17-C , 22-O ) :   0.8910 B( 17-C , 23-H ) :   0.9249 B( 18-C , 19-C ) :   0.9408
B( 18-C , 24-H ) :   0.9376 B( 18-C , 25-H ) :   0.9351 B( 19-C , 20-O ) :   0.8446
B( 19-C , 26-H ) :   0.9352 B( 19-C , 27-H ) :   0.9380 B( 22-O , 28-H ) :   0.7959

FINAL SINGLE POINT ENERGY      -652.868045070761

DIPOLE MOMENT
-------------
                                X             Y             Z
Electronic contribution:     -2.20307      -2.78259       2.31312
Nuclear contribution   :      2.63103       3.00169      -3.20045
                        -----------------------------------------
Total Dipole Moment    :      0.42796       0.21910      -0.88733
                        -----------------------------------------
Magnitude (a.u.)       :      1.00921
Magnitude (Debye)      :      2.56520

Rotational constants in cm-1:     0.057930     0.012042     0.011491
Rotational constants in MHz :  1736.690124   361.003791   344.483645

                             ****ORCA TERMINATED NORMALLY****
TOTAL RUN TIME: 0 days 0 hours 27 minutes 30 seconds 361 msec
