                         Program Version 4.2.0 -  RELEASE  -
|  1> # Test redundant internal optimization
|  2> #
|  3> ! RKS B3LYP  Opt TightSCF SmallPrint
|  4>
|  5> %basis
|  6>         Basis "6-31G"
|  7> end
|  8>
|  9> %geom
| 10> Constraints
| 11> { D 4  0  15  12  120.0   C } # D for Dihedral angle
| 12> { D 0  15  12  16  105.0   C } # D for Dihedral angle
| 13> { D 0  4  3  2   C } # D for Dihedral angle
| 14> { D 4  3  2  1   C } # D for Dihedral angle
| 15> { D 3  2  1  0   C } # D for Dihedral angle
| 16> { D 2  1  0  4   C } # D for Dihedral angle
| 17> { D 1  0  4  3   C } # D for Dihedral angle
| 18> { D 16  20  19  18   C } # D for Dihedral angle
| 19> { D 20  19  18  17   C } # D for Dihedral angle
| 20> { D 19  18  17  16   C } # D for Dihedral angle
| 21> { D 18  17  16  20   C } # D for Dihedral angle
| 22> { D 17  16  20  19   C } # D for Dihedral angle
| 23> { D 15  12  16  20   C } # D for Dihedral angle
| 24> end
| 25> end
| 26>
| 27>
| 28> #%pal
| 29> #nprocs 8
| 30> #end
| 31>
| 32> * xyz 0 1
| 33> C  -21.048   26.222   46.251
| 34> C  -20.361   27.558   45.944
| 35> C  -20.329   28.222   47.341
| 36> C  -20.110   27.022   48.296
| 37> O  -20.473   25.807   47.535
| 38> H  -20.833   25.428   45.533
| 39> H  -19.344   27.382   45.576
| 40> H  -20.898   28.157   45.201
| 41> H  -19.543   28.978   47.434
| 42> H  -21.289   28.710   47.548
| 43> H  -20.733   27.082   49.195
| 44> H  -19.064   26.913   48.597
| 45> C  -23.119   27.818   46.058
| 46> H  -23.843   28.114   46.828
| 47> H  -22.297   28.546   46.062
| 48> O  -22.586   26.394   46.375
| 49> C  -23.818   27.903   44.673
| 50> C  -24.227   29.343   44.343
| 51> C  -22.884   29.952   43.875
| 52> C  -22.197   28.769   43.148
| 53> O  -22.882   27.540   43.603
| 54> H  -24.637   27.181   44.640
| 55> O  -25.265   29.351   43.188
| 56> H  -24.659   29.874   45.199
| 57> H  -23.016   30.822   43.224
| 58> H  -22.292   30.269   44.742
| 59> H  -21.129   28.693   43.386
| 60> H  -22.314   28.821   42.062
| 61> H  -24.853   28.824   42.319
| 62> *
| 63>
| 64>                          ****END OF INPUT****
 Total Charge           Charge          ....    0
 Multiplicity           Mult            ....    1
 Number of Electrons    NEL             ....  102
FINAL SINGLE POINT ENERGY      -652.814812077035
FINAL SINGLE POINT ENERGY      -652.840241875149
FINAL SINGLE POINT ENERGY      -652.850310124020
FINAL SINGLE POINT ENERGY      -652.852473600316
FINAL SINGLE POINT ENERGY      -652.852875430827
FINAL SINGLE POINT ENERGY      -652.852926157407
                    ***********************HURRAY********************

CARTESIAN COORDINATES (ANGSTROEM)
---------------------------------
  C    -21.133692   26.313223   46.296526
  C    -20.154412   27.461609   46.031462
  C    -20.038564   28.121929   47.433748
  C    -20.137815   26.903311   48.383808
  O    -20.727152   25.807420   47.584222
  H    -21.037379   25.475504   45.605458
  H    -19.194210   27.026096   45.736221
  H    -20.473701   28.139743   45.238804
  H    -19.098119   28.667513   47.559523
  H    -20.858237   28.825756   47.611838
  H    -20.771650   27.090233   49.255420
  H    -19.156836   26.557512   48.722621
  C    -23.113810   27.935275   46.049015
  H    -23.904424   28.086805   46.793389
  H    -22.377610   28.738716   46.164842
  O    -22.550475   26.627050   46.302429
  C    -23.725532   27.960410   44.646871
  C    -24.350893   29.295920   44.217168
  C    -23.110011   30.077766   43.716011
  C    -22.233157   28.973708   43.073900
  O    -22.725466   27.679056   43.608086
  H    -24.455252   27.146823   44.584639
  O    -25.329553   29.100288   43.161103
  H    -24.888979   29.810212   45.015248
  H    -23.404018   30.855454   43.006719
  H    -22.597656   30.556225   44.558103
  H    -21.170624   29.084330   43.314551
  H    -22.338637   28.933148   41.985026
  H    -24.985135   28.443966   42.519248

 Multiplicity           Mult            ....    1
 Number of Electrons    NEL             ....  102
 Basis Dimension        Dim             ....  149

ORBITAL ENERGIES
----------------

  NO   OCC          E(Eh)            E(eV)
   0   2.0000     -19.149594      -521.0869
   1   2.0000     -19.142569      -520.8958
   2   2.0000     -19.136041      -520.7181
   3   2.0000     -19.135041      -520.6909
   4   2.0000     -10.275952      -279.6229
   5   2.0000     -10.248093      -278.8648
   6   2.0000     -10.238456      -278.6026
   7   2.0000     -10.237379      -278.5733
   8   2.0000     -10.235683      -278.5271
   9   2.0000     -10.225728      -278.2562
  10   2.0000     -10.196368      -277.4573
  11   2.0000     -10.194010      -277.3931
  12   2.0000     -10.191758      -277.3318
  13   2.0000      -1.049042       -28.5459
  14   2.0000      -1.039749       -28.2930
  15   2.0000      -1.011287       -27.5185
  16   2.0000      -0.990670       -26.9575
  17   2.0000      -0.790180       -21.5019
  18   2.0000      -0.788640       -21.4600
  19   2.0000      -0.773937       -21.0599
  20   2.0000      -0.733740       -19.9661
  21   2.0000      -0.683537       -18.6000
  22   2.0000      -0.610063       -16.6007
  23   2.0000      -0.604797       -16.4574
  24   2.0000      -0.601587       -16.3700
  25   2.0000      -0.574788       -15.6408
  26   2.0000      -0.530888       -14.4462
  27   2.0000      -0.511963       -13.9312
  28   2.0000      -0.505844       -13.7647
  29   2.0000      -0.490087       -13.3359
  30   2.0000      -0.479601       -13.0506
  31   2.0000      -0.462292       -12.5796
  32   2.0000      -0.455842       -12.4041
  33   2.0000      -0.438913       -11.9434
  34   2.0000      -0.433511       -11.7964
  35   2.0000      -0.412741       -11.2313
  36   2.0000      -0.405536       -11.0352
  37   2.0000      -0.398963       -10.8563
  38   2.0000      -0.381941       -10.3931
  39   2.0000      -0.378153       -10.2901
  40   2.0000      -0.363532        -9.8922
  41   2.0000      -0.361158        -9.8276
  42   2.0000      -0.355261        -9.6671
  43   2.0000      -0.337040        -9.1713
  44   2.0000      -0.313600        -8.5335
  45   2.0000      -0.311748        -8.4831
  46   2.0000      -0.288459        -7.8494
  47   2.0000      -0.276370        -7.5204
  48   2.0000      -0.270219        -7.3530
  49   2.0000      -0.256186        -6.9712
  50   2.0000      -0.239440        -6.5155
  51   0.0000       0.052552         1.4300
  52   0.0000       0.074804         2.0355
  53   0.0000       0.082569         2.2468
  54   0.0000       0.096141         2.6161
  55   0.0000       0.100179         2.7260

MULLIKEN ATOMIC CHARGES
-----------------------
   0 C :    0.328182
   1 C :   -0.311059
   2 C :   -0.311482
   3 C :   -0.001057
   4 O :   -0.495928
   5 H :    0.166550
   6 H :    0.156782
   7 H :    0.157165
   8 H :    0.144244
   9 H :    0.146673
  10 H :    0.147271
  11 H :    0.143823
  12 C :   -0.007803
  13 H :    0.151052
  14 H :    0.119119
  15 O :   -0.522524
  16 C :    0.063186
  17 C :    0.075070
  18 C :   -0.290707
  19 C :   -0.041050
  20 O :   -0.515611
  21 H :    0.175895
  22 O :   -0.599102
  23 H :    0.152655
  24 H :    0.165974
  25 H :    0.139452
  26 H :    0.142993
  27 H :    0.153517
  28 H :    0.366720
Sum of atomic charges:   -0.0000000

LOEWDIN ATOMIC CHARGES
----------------------
   0 C :    0.187412
   1 C :   -0.232649
   2 C :   -0.223259
   3 C :   -0.029685
   4 O :   -0.313573
   5 H :    0.112020
   6 H :    0.124126
   7 H :    0.117446
   8 H :    0.115123
   9 H :    0.106477
  10 H :    0.104717
  11 H :    0.103240
  12 C :   -0.039310
  13 H :    0.112545
  14 H :    0.091602
  15 O :   -0.321910
  16 C :    0.006854
  17 C :    0.034633
  18 C :   -0.240478
  19 C :   -0.042787
  20 O :   -0.327028
  21 H :    0.122892
  22 O :   -0.412426
  23 H :    0.115933
  24 H :    0.128362
  25 H :    0.110654
  26 H :    0.099058
  27 H :    0.105471
  28 H :    0.284541

  Mayer bond orders larger than 0.100000
B(  0-C ,  1-C ) :   0.9321 B(  0-C ,  4-O ) :   0.9119 B(  0-C ,  5-H ) :   0.9307
B(  0-C , 15-O ) :   0.8614 B(  1-C ,  2-C ) :   0.9491 B(  1-C ,  6-H ) :   0.9352
B(  1-C ,  7-H ) :   0.9198 B(  2-C ,  3-C ) :   0.9481 B(  2-C ,  8-H ) :   0.9458
B(  2-C ,  9-H ) :   0.9397 B(  3-C ,  4-O ) :   0.8492 B(  3-C , 10-H ) :   0.9344
B(  3-C , 11-H ) :   0.9393 B( 12-C , 13-H ) :   0.9246 B( 12-C , 14-H ) :   0.9079
B( 12-C , 15-O ) :   0.8628 B( 12-C , 16-C ) :   0.8865 B( 16-C , 17-C ) :   0.8926
B( 16-C , 20-O ) :   0.8591 B( 16-C , 21-H ) :   0.9227 B( 17-C , 18-C ) :   0.9102
B( 17-C , 22-O ) :   0.8958 B( 17-C , 23-H ) :   0.9338 B( 18-C , 19-C ) :   0.9415
B( 18-C , 24-H ) :   0.9363 B( 18-C , 25-H ) :   0.9346 B( 19-C , 20-O ) :   0.8523
B( 19-C , 26-H ) :   0.9261 B( 19-C , 27-H ) :   0.9369 B( 22-O , 28-H ) :   0.7934

FINAL SINGLE POINT ENERGY      -652.852932023192

DIPOLE MOMENT
-------------
                                X             Y             Z
Electronic contribution:     -4.31690      -5.60699      -1.19223
Nuclear contribution   :      5.32166       7.18757       1.08523
                        -----------------------------------------
Total Dipole Moment    :      1.00476       1.58058      -0.10700
                        -----------------------------------------
Magnitude (a.u.)       :      1.87596
Magnitude (Debye)      :      4.76831

Rotational constants in cm-1:     0.061977     0.013492     0.012848
Rotational constants in MHz :  1858.032225   404.469997   385.160137

                             ****ORCA TERMINATED NORMALLY****
TOTAL RUN TIME: 0 days 0 hours 23 minutes 44 seconds 885 msec
