                         Program Version 4.2.0 -  RELEASE  -
|  1> # Test redundant internal optimization
|  2> #
|  3> ! RKS B3LYP  Opt TightSCF SmallPrint
|  4>
|  5> %basis
|  6>         Basis "6-31G"
|  7> end
|  8>
|  9> %geom
| 10> Constraints
| 11> { D 4  0  15  12  300.0   C } # D for Dihedral angle
| 12> { D 0  15  12  16  180.0   C } # D for Dihedral angle
| 13> { D 0  4  3  2   C } # D for Dihedral angle
| 14> { D 4  3  2  1   C } # D for Dihedral angle
| 15> { D 3  2  1  0   C } # D for Dihedral angle
| 16> { D 2  1  0  4   C } # D for Dihedral angle
| 17> { D 1  0  4  3   C } # D for Dihedral angle
| 18> { D 16  20  19  18   C } # D for Dihedral angle
| 19> { D 20  19  18  17   C } # D for Dihedral angle
| 20> { D 19  18  17  16   C } # D for Dihedral angle
| 21> { D 18  17  16  20   C } # D for Dihedral angle
| 22> { D 17  16  20  19   C } # D for Dihedral angle
| 23> { D 15  12  16  20   C } # D for Dihedral angle
| 24> end
| 25> end
| 26>
| 27>
| 28> #%pal
| 29> #nprocs 8
| 30> #end
| 31>
| 32> * xyz 0 1
| 33> C  -21.048   26.222   46.251
| 34> C  -20.361   27.558   45.944
| 35> C  -20.329   28.222   47.341
| 36> C  -20.110   27.022   48.296
| 37> O  -20.473   25.807   47.535
| 38> H  -20.833   25.428   45.533
| 39> H  -19.344   27.382   45.576
| 40> H  -20.898   28.157   45.201
| 41> H  -19.543   28.978   47.434
| 42> H  -21.289   28.710   47.548
| 43> H  -20.733   27.082   49.195
| 44> H  -19.064   26.913   48.597
| 45> C  -23.362   25.116   46.798
| 46> H  -23.185   24.325   46.059
| 47> H  -23.010   24.759   47.774
| 48> O  -22.586   26.394   46.375
| 49> C  -24.894   25.351   46.904
| 50> C  -25.501   25.691   45.539
| 51> C  -25.605   24.292   44.885
| 52> C  -25.941   23.369   46.083
| 53> O  -25.575   24.116   47.305
| 54> H  -25.089   26.091   47.683
| 55> H  -26.496   26.132   45.669
| 56> O  -24.632   26.679   44.713
| 57> H  -26.364   24.247   44.098
| 58> H  -24.643   24.013   44.439
| 59> H  -25.382   22.428   46.057
| 60> H  -27.009   23.144   46.150
| 61> H  -23.631   26.257   44.570
| 62> *
| 63>
| 64>                          ****END OF INPUT****
 Total Charge           Charge          ....    0
 Multiplicity           Mult            ....    1
 Number of Electrons    NEL             ....  102
FINAL SINGLE POINT ENERGY      -652.834508756373
FINAL SINGLE POINT ENERGY      -652.860517171305
FINAL SINGLE POINT ENERGY      -652.867154133110
FINAL SINGLE POINT ENERGY      -652.869749395171
FINAL SINGLE POINT ENERGY      -652.871166722980
FINAL SINGLE POINT ENERGY      -652.872002065974
FINAL SINGLE POINT ENERGY      -652.872316912283
FINAL SINGLE POINT ENERGY      -652.872400020957
FINAL SINGLE POINT ENERGY      -652.872411121585
                    ***********************HURRAY********************

CARTESIAN COORDINATES (ANGSTROEM)
---------------------------------
  C    -21.073548   26.106430   46.260033
  C    -20.483321   27.474401   45.923195
  C    -20.501585   28.173620   47.300408
  C    -20.203192   27.023703   48.285414
  O    -20.486140   25.767752   47.533156
  H    -20.829762   25.286217   45.577316
  H    -19.458889   27.339244   45.559187
  H    -21.060299   28.005224   45.162528
  H    -19.765628   28.980271   47.370312
  H    -21.493847   28.594593   47.485662
  H    -20.830509   27.045080   49.179487
  H    -19.151641   26.974106   48.580841
  C    -23.232533   25.051456   46.805441
  H    -23.027125   24.225462   46.110463
  H    -22.880481   24.766226   47.799312
  O    -22.515134   26.254135   46.352801
  C    -24.726819   25.382636   46.844882
  C    -25.362153   25.726692   45.486977
  C    -25.560858   24.312474   44.863858
  C    -25.903329   23.437805   46.087675
  O    -25.455084   24.197556   47.292759
  H    -24.903096   26.164968   47.588526
  H    -26.343318   26.180739   45.668250
  O    -24.615992   26.629757   44.648443
  H    -26.349349   24.311321   44.106123
  H    -24.629259   24.000994   44.379319
  H    -25.402006   22.465437   46.080997
  H    -26.979199   23.278743   46.204443
  H    -23.705904   26.727961   45.014190

 Multiplicity           Mult            ....    1
 Number of Electrons    NEL             ....  102
 Basis Dimension        Dim             ....  149

ORBITAL ENERGIES
----------------

  NO   OCC          E(Eh)            E(eV)
   0   2.0000     -19.167236      -521.5670
   1   2.0000     -19.153487      -521.1929
   2   2.0000     -19.139235      -520.8051
   3   2.0000     -19.113450      -520.1034
   4   2.0000     -10.292389      -280.0702
   5   2.0000     -10.234552      -278.4963
   6   2.0000     -10.233854      -278.4773
   7   2.0000     -10.233509      -278.4679
   8   2.0000     -10.229878      -278.3691
   9   2.0000     -10.225506      -278.2502
  10   2.0000     -10.196051      -277.4487
  11   2.0000     -10.193583      -277.3815
  12   2.0000     -10.178759      -276.9781
  13   2.0000      -1.069504       -29.1027
  14   2.0000      -1.024960       -27.8906
  15   2.0000      -1.008021       -27.4296
  16   2.0000      -0.992695       -27.0126
  17   2.0000      -0.799037       -21.7429
  18   2.0000      -0.772461       -21.0197
  19   2.0000      -0.766989       -20.8708
  20   2.0000      -0.735901       -20.0249
  21   2.0000      -0.677030       -18.4229
  22   2.0000      -0.609121       -16.5750
  23   2.0000      -0.600110       -16.3298
  24   2.0000      -0.592778       -16.1303
  25   2.0000      -0.579794       -15.7770
  26   2.0000      -0.531460       -14.4618
  27   2.0000      -0.519434       -14.1345
  28   2.0000      -0.503023       -13.6880
  29   2.0000      -0.485731       -13.2174
  30   2.0000      -0.474999       -12.9254
  31   2.0000      -0.460839       -12.5401
  32   2.0000      -0.440852       -11.9962
  33   2.0000      -0.429059       -11.6753
  34   2.0000      -0.427686       -11.6379
  35   2.0000      -0.419251       -11.4084
  36   2.0000      -0.410510       -11.1706
  37   2.0000      -0.387442       -10.5428
  38   2.0000      -0.382530       -10.4092
  39   2.0000      -0.368112       -10.0168
  40   2.0000      -0.366072        -9.9613
  41   2.0000      -0.358919        -9.7667
  42   2.0000      -0.354159        -9.6372
  43   2.0000      -0.343126        -9.3369
  44   2.0000      -0.327742        -8.9183
  45   2.0000      -0.313577        -8.5329
  46   2.0000      -0.293846        -7.9960
  47   2.0000      -0.277549        -7.5525
  48   2.0000      -0.267689        -7.2842
  49   2.0000      -0.249344        -6.7850
  50   2.0000      -0.242093        -6.5877
  51   0.0000       0.059802         1.6273
  52   0.0000       0.082373         2.2415
  53   0.0000       0.089384         2.4323
  54   0.0000       0.098004         2.6668
  55   0.0000       0.108248         2.9456

MULLIKEN ATOMIC CHARGES
-----------------------
   0 C :    0.299260
   1 C :   -0.269149
   2 C :   -0.299268
   3 C :   -0.008069
   4 O :   -0.510525
   5 H :    0.152156
   6 H :    0.152717
   7 H :    0.160975
   8 H :    0.147166
   9 H :    0.164993
  10 H :    0.153218
  11 H :    0.149295
  12 C :   -0.005927
  13 H :    0.134677
  14 H :    0.178130
  15 O :   -0.560030
  16 C :    0.044896
  17 C :    0.114625
  18 C :   -0.303035
  19 C :   -0.020717
  20 O :   -0.519721
  21 H :    0.160410
  22 H :    0.147119
  23 O :   -0.640899
  24 H :    0.153728
  25 H :    0.142428
  26 H :    0.142685
  27 H :    0.149472
  28 H :    0.389393
Sum of atomic charges:   -0.0000000

LOEWDIN ATOMIC CHARGES
----------------------
   0 C :    0.175372
   1 C :   -0.214608
   2 C :   -0.215552
   3 C :   -0.027207
   4 O :   -0.322317
   5 H :    0.100876
   6 H :    0.118464
   7 H :    0.125190
   8 H :    0.116881
   9 H :    0.120470
  10 H :    0.108699
  11 H :    0.106499
  12 C :   -0.044903
  13 H :    0.096469
  14 H :    0.121680
  15 O :   -0.338447
  16 C :    0.018361
  17 C :    0.040867
  18 C :   -0.237691
  19 C :   -0.032681
  20 O :   -0.322746
  21 H :    0.115610
  22 H :    0.104915
  23 O :   -0.437041
  24 H :    0.121773
  25 H :    0.109806
  26 H :    0.102284
  27 H :    0.106123
  28 H :    0.282858

  Mayer bond orders larger than 0.100000
B(  0-C ,  1-C ) :   0.9516 B(  0-C ,  4-O ) :   0.9174 B(  0-C ,  5-H ) :   0.9202
B(  0-C , 15-O ) :   0.8128 B(  1-C ,  2-C ) :   0.9535 B(  1-C ,  6-H ) :   0.9384
B(  1-C ,  7-H ) :   0.9351 B(  2-C ,  3-C ) :   0.9552 B(  2-C ,  8-H ) :   0.9444
B(  2-C ,  9-H ) :   0.9439 B(  3-C ,  4-O ) :   0.8278 B(  3-C , 10-H ) :   0.9353
B(  3-C , 11-H ) :   0.9400 B( 12-C , 13-H ) :   0.9209 B( 12-C , 14-H ) :   0.9177
B( 12-C , 15-O ) :   0.7781 B( 12-C , 16-C ) :   0.9097 B( 16-C , 17-C ) :   0.9134
B( 16-C , 20-O ) :   0.8562 B( 16-C , 21-H ) :   0.9289 B( 17-C , 18-C ) :   0.9007
B( 17-C , 22-H ) :   0.9291 B( 17-C , 23-O ) :   0.9343 B( 18-C , 19-C ) :   0.9398
B( 18-C , 24-H ) :   0.9443 B( 18-C , 25-H ) :   0.9438 B( 19-C , 20-O ) :   0.8329
B( 19-C , 26-H ) :   0.9341 B( 19-C , 27-H ) :   0.9384 B( 23-O , 28-H ) :   0.7232

FINAL SINGLE POINT ENERGY      -652.872412886629

DIPOLE MOMENT
-------------
                                X             Y             Z
Electronic contribution:     -1.51910      -1.11710       0.98440
Nuclear contribution   :      2.42342       1.29986      -0.99268
                        -----------------------------------------
Total Dipole Moment    :      0.90431       0.18276      -0.00829
                        -----------------------------------------
Magnitude (a.u.)       :      0.92263
Magnitude (Debye)      :      2.34515

Rotational constants in cm-1:     0.058603     0.013407     0.012102
Rotational constants in MHz :  1756.887336   401.943737   362.799540

                             ****ORCA TERMINATED NORMALLY****
TOTAL RUN TIME: 0 days 1 hours 4 minutes 2 seconds 258 msec
