                         Program Version 4.2.0 -  RELEASE  -
|  1> # Test redundant internal optimization
|  2> #
|  3> ! RKS B3LYP  Opt TightSCF SmallPrint
|  4>
|  5> %basis
|  6>         Basis "6-31G"
|  7> end
|  8>
|  9> %geom
| 10> Constraints
| 11> { D 4  0  15  12  225.0   C } # D for Dihedral angle
| 12> { D 0  15  12  16  30.0   C } # D for Dihedral angle
| 13> { D 0  4  3  2   C } # D for Dihedral angle
| 14> { D 4  3  2  1   C } # D for Dihedral angle
| 15> { D 3  2  1  0   C } # D for Dihedral angle
| 16> { D 2  1  0  4   C } # D for Dihedral angle
| 17> { D 1  0  4  3   C } # D for Dihedral angle
| 18> { D 16  20  19  18   C } # D for Dihedral angle
| 19> { D 20  19  18  17   C } # D for Dihedral angle
| 20> { D 19  18  17  16   C } # D for Dihedral angle
| 21> { D 18  17  16  20   C } # D for Dihedral angle
| 22> { D 17  16  20  19   C } # D for Dihedral angle
| 23> { D 15  12  16  20   C } # D for Dihedral angle
| 24> end
| 25> end
| 26>
| 27>
| 28> #%pal
| 29> #nprocs 8
| 30> #end
| 31>
| 32> * xyz 0 1
| 33> C  -21.048   26.222   46.251
| 34> C  -20.361   27.558   45.944
| 35> C  -20.329   28.222   47.341
| 36> C  -20.110   27.022   48.296
| 37> O  -20.473   25.807   47.535
| 38> H  -20.833   25.428   45.533
| 39> H  -19.344   27.382   45.576
| 40> H  -20.898   28.157   45.201
| 41> H  -19.543   28.978   47.434
| 42> H  -21.289   28.710   47.548
| 43> H  -20.733   27.082   49.195
| 44> H  -19.064   26.913   48.597
| 45> C  -23.415   25.773   45.218
| 46> H  -24.398   25.468   45.600
| 47> H  -23.572   26.509   44.419
| 48> O  -22.586   26.394   46.375
| 49> C  -22.729   24.530   44.587
| 50> C  -22.624   23.380   45.596
| 51> C  -24.058   22.799   45.560
| 52> C  -24.473   22.980   44.078
| 53> O  -23.553   23.985   43.503
| 54> H  -21.778   24.832   44.145
| 55> O  -21.593   22.329   45.100
| 56> H  -22.324   23.711   46.596
| 57> H  -24.100   21.754   45.881
| 58> H  -24.715   23.379   46.219
| 59> H  -25.503   23.334   43.971
| 60> H  -24.353   22.062   43.496
| 61> H  -21.874   21.982   44.098
| 62> *
| 63>
| 64>                          ****END OF INPUT****
 Total Charge           Charge          ....    0
 Multiplicity           Mult            ....    1
 Number of Electrons    NEL             ....  102
FINAL SINGLE POINT ENERGY      -652.829380736851
FINAL SINGLE POINT ENERGY      -652.851889485679
FINAL SINGLE POINT ENERGY      -652.855548928639
FINAL SINGLE POINT ENERGY      -652.857078071282
FINAL SINGLE POINT ENERGY      -652.857204855885
FINAL SINGLE POINT ENERGY      -652.857231836070
                    ***********************HURRAY********************

CARTESIAN COORDINATES (ANGSTROEM)
---------------------------------
  C    -20.932060   26.196858   46.232684
  C    -20.286536   27.555358   45.961613
  C    -20.444352   28.262898   47.329124
  C    -20.273077   27.106057   48.337712
  O    -20.491660   25.858256   47.561527
  H    -20.609105   25.387782   45.578115
  H    -19.227361   27.415532   45.713892
  H    -20.771515   28.091752   45.141934
  H    -19.710379   29.060229   47.478724
  H    -21.447146   28.692999   47.404755
  H    -20.995930   27.139050   49.156979
  H    -19.260785   27.045149   48.748578
  C    -23.223707   25.749257   45.215299
  H    -24.180144   25.562690   45.712020
  H    -23.397532   26.482386   44.416869
  O    -22.378186   26.336691   46.249771
  C    -22.710349   24.463677   44.554268
  C    -22.562435   23.249111   45.482648
  C    -24.029073   22.763109   45.596245
  C    -24.612464   23.056789   44.191030
  O    -23.698010   24.039708   43.552391
  H    -21.786338   24.644839   43.998332
  O    -21.697393   22.246417   44.878926
  H    -22.110267   23.483545   46.446199
  H    -24.064897   21.703112   45.859355
  H    -24.555451   23.326261   46.373868
  H    -25.620225   23.481173   44.226967
  H    -24.629479   22.171943   43.547105
  H    -21.967146   22.109371   43.946070

 Multiplicity           Mult            ....    1
 Number of Electrons    NEL             ....  102
 Basis Dimension        Dim             ....  149

ORBITAL ENERGIES
----------------

  NO   OCC          E(Eh)            E(eV)
   0   2.0000     -19.149884      -521.0948
   1   2.0000     -19.139693      -520.8175
   2   2.0000     -19.138957      -520.7975
   3   2.0000     -19.137444      -520.7563
   4   2.0000     -10.279035      -279.7068
   5   2.0000     -10.239841      -278.6402
   6   2.0000     -10.238722      -278.6098
   7   2.0000     -10.235234      -278.5149
   8   2.0000     -10.233002      -278.4541
   9   2.0000     -10.222508      -278.1686
  10   2.0000     -10.190579      -277.2998
  11   2.0000     -10.183718      -277.1130
  12   2.0000     -10.183297      -277.1016
  13   2.0000      -1.050148       -28.5760
  14   2.0000      -1.039266       -28.2799
  15   2.0000      -1.007890       -27.4261
  16   2.0000      -0.990914       -26.9641
  17   2.0000      -0.786367       -21.3981
  18   2.0000      -0.780329       -21.2338
  19   2.0000      -0.767991       -20.8981
  20   2.0000      -0.734923       -19.9983
  21   2.0000      -0.676675       -18.4133
  22   2.0000      -0.610111       -16.6020
  23   2.0000      -0.604354       -16.4453
  24   2.0000      -0.596500       -16.2316
  25   2.0000      -0.570196       -15.5158
  26   2.0000      -0.525215       -14.2918
  27   2.0000      -0.520642       -14.1674
  28   2.0000      -0.497830       -13.5466
  29   2.0000      -0.482900       -13.1404
  30   2.0000      -0.469368       -12.7721
  31   2.0000      -0.461171       -12.5491
  32   2.0000      -0.453169       -12.3314
  33   2.0000      -0.432477       -11.7683
  34   2.0000      -0.424677       -11.5560
  35   2.0000      -0.416635       -11.3372
  36   2.0000      -0.400483       -10.8977
  37   2.0000      -0.395574       -10.7641
  38   2.0000      -0.373254       -10.1567
  39   2.0000      -0.369946       -10.0667
  40   2.0000      -0.365976        -9.9587
  41   2.0000      -0.354867        -9.6564
  42   2.0000      -0.350684        -9.5426
  43   2.0000      -0.334470        -9.1014
  44   2.0000      -0.312666        -8.5081
  45   2.0000      -0.311395        -8.4735
  46   2.0000      -0.308384        -8.3915
  47   2.0000      -0.271467        -7.3870
  48   2.0000      -0.262257        -7.1364
  49   2.0000      -0.254898        -6.9361
  50   2.0000      -0.240252        -6.5376
  51   0.0000       0.060588         1.6487
  52   0.0000       0.074479         2.0267
  53   0.0000       0.092869         2.5271
  54   0.0000       0.096206         2.6179
  55   0.0000       0.098538         2.6813

MULLIKEN ATOMIC CHARGES
-----------------------
   0 C :    0.275277
   1 C :   -0.252159
   2 C :   -0.298755
   3 C :   -0.001529
   4 O :   -0.505158
   5 H :    0.156058
   6 H :    0.143535
   7 H :    0.143884
   8 H :    0.140390
   9 H :    0.163331
  10 H :    0.151772
  11 H :    0.141385
  12 C :    0.009760
  13 H :    0.149793
  14 H :    0.147930
  15 O :   -0.530075
  16 C :    0.022535
  17 C :    0.077745
  18 C :   -0.299188
  19 C :   -0.037761
  20 O :   -0.528463
  21 H :    0.161473
  22 O :   -0.601301
  23 H :    0.190709
  24 H :    0.163235
  25 H :    0.153149
  26 H :    0.150278
  27 H :    0.150208
  28 H :    0.361942
Sum of atomic charges:   -0.0000000

LOEWDIN ATOMIC CHARGES
----------------------
   0 C :    0.172633
   1 C :   -0.222598
   2 C :   -0.216144
   3 C :   -0.026086
   4 O :   -0.313989
   5 H :    0.103646
   6 H :    0.112615
   7 H :    0.116674
   8 H :    0.113503
   9 H :    0.119771
  10 H :    0.107860
  11 H :    0.102043
  12 C :   -0.037797
  13 H :    0.111097
  14 H :    0.103614
  15 O :   -0.337147
  16 C :   -0.001807
  17 C :    0.032770
  18 C :   -0.239466
  19 C :   -0.039529
  20 O :   -0.328307
  21 H :    0.110904
  22 O :   -0.413376
  23 H :    0.132260
  24 H :    0.127756
  25 H :    0.118088
  26 H :    0.105853
  27 H :    0.103970
  28 H :    0.281191

  Mayer bond orders larger than 0.100000
B(  0-C ,  1-C ) :   0.9383 B(  0-C ,  4-O ) :   0.9212 B(  0-C ,  5-H ) :   0.9094
B(  0-C , 15-O ) :   0.8335 B(  1-C ,  2-C ) :   0.9556 B(  1-C ,  6-H ) :   0.9357
B(  1-C ,  7-H ) :   0.9394 B(  2-C ,  3-C ) :   0.9545 B(  2-C ,  8-H ) :   0.9453
B(  2-C ,  9-H ) :   0.9434 B(  3-C ,  4-O ) :   0.8367 B(  3-C , 10-H ) :   0.9349
B(  3-C , 11-H ) :   0.9398 B( 12-C , 13-H ) :   0.9347 B( 12-C , 14-H ) :   0.9167
B( 12-C , 15-O ) :   0.8407 B( 12-C , 16-C ) :   0.8887 B( 16-C , 17-C ) :   0.8982
B( 16-C , 20-O ) :   0.8323 B( 16-C , 21-H ) :   0.9226 B( 17-C , 18-C ) :   0.9133
B( 17-C , 22-O ) :   0.8889 B( 17-C , 23-H ) :   0.9183 B( 18-C , 19-C ) :   0.9415
B( 18-C , 24-H ) :   0.9378 B( 18-C , 25-H ) :   0.9332 B( 19-C , 20-O ) :   0.8394
B( 19-C , 26-H ) :   0.9348 B( 19-C , 27-H ) :   0.9373 B( 22-O , 28-H ) :   0.7962

FINAL SINGLE POINT ENERGY      -652.857233425260

DIPOLE MOMENT
-------------
                                X             Y             Z
Electronic contribution:      0.23299      -3.10073      -1.55845
Nuclear contribution   :     -0.63237       3.62205       1.35284
                        -----------------------------------------
Total Dipole Moment    :     -0.39938       0.52132      -0.20561
                        -----------------------------------------
Magnitude (a.u.)       :      0.68815
Magnitude (Debye)      :      1.74915

Rotational constants in cm-1:     0.059357     0.013152     0.012270
Rotational constants in MHz :  1779.473691   394.290720   367.838096

                             ****ORCA TERMINATED NORMALLY****
TOTAL RUN TIME: 0 days 0 hours 12 minutes 30 seconds 90 msec
