                         Program Version 4.2.1 -  RELEASE  -
|  1> # Test redundant internal optimization
|  2> #
|  3> ! RKS B3LYP  Opt TightSCF SmallPrint
|  4>
|  5> %basis
|  6>         Basis "6-31G"
|  7> end
|  8>
|  9> %geom
| 10> Constraints
| 11> { D 4  0  19  14  255.0   C } # D for Dihedral angle
| 12> { D 0  19  14  12  315.0   C } # D for Dihedral angle
| 13> { D 0  4  3  2   C } # D for Dihedral angle
| 14> { D 4  3  2  1   C } # D for Dihedral angle
| 15> { D 3  2  1  0   C } # D for Dihedral angle
| 16> { D 2  1  0  4   C } # D for Dihedral angle
| 17> { D 1  0  4  3   C } # D for Dihedral angle
| 18> { D 14  15  16  17   C } # D for Dihedral angle
| 19> { D 15  16  17  12   C } # D for Dihedral angle
| 20> { D 16  17  12  14   C } # D for Dihedral angle
| 21> { D 17  12  14  15   C } # D for Dihedral angle
| 22> { D 12  14  15  16   C } # D for Dihedral angle
| 23> end
| 24> end
| 25>
| 26>
| 27> #%pal
| 28> #nprocs 8
| 29> #end
| 30>
| 31> * xyz 0 1
| 32> C  -21.048   26.222   46.251
| 33> C  -20.361   27.558   45.944
| 34> C  -20.329   28.222   47.341
| 35> C  -20.110   27.022   48.296
| 36> O  -20.473   25.807   47.535
| 37> H  -20.833   25.428   45.533
| 38> H  -19.344   27.382   45.576
| 39> H  -20.898   28.157   45.201
| 40> H  -19.543   28.978   47.434
| 41> H  -21.289   28.710   47.548
| 42> H  -20.733   27.082   49.195
| 43> H  -19.064   26.913   48.597
| 44> C  -22.668   24.981   44.385
| 45> H  -23.387   24.395   43.790
| 46> C  -23.236   25.322   45.767
| 47> C  -23.023   23.995   46.531
| 48> C  -21.690   23.463   45.948
| 49> O  -21.472   24.182   44.673
| 50> H  -22.343   25.845   43.803
| 51> O  -22.472   26.381   46.366
| 52> H  -24.287   25.630   45.736
| 53> H  -22.980   24.131   47.616
| 54> H  -23.844   23.299   46.314
| 55> H  -21.716   22.386   45.752
| 56> H  -20.834   23.685   46.593
| 57> *
| 58>
| 59>                          ****END OF INPUT****
 Total Charge           Charge          ....    0
 Multiplicity           Mult            ....    1
 Number of Electrons    NEL             ....   86
FINAL SINGLE POINT ENERGY      -538.417049378976
FINAL SINGLE POINT ENERGY      -538.432875457221
FINAL SINGLE POINT ENERGY      -538.435284247945
FINAL SINGLE POINT ENERGY      -538.435760987373
FINAL SINGLE POINT ENERGY      -538.435813530897
FINAL SINGLE POINT ENERGY      -538.435835795621
                    ***********************HURRAY********************

CARTESIAN COORDINATES (ANGSTROEM)
---------------------------------
  C    -20.822638   26.280886   46.227081
  C    -20.307261   27.702804   45.996652
  C    -20.412375   28.314260   47.415379
  C    -20.072856   27.116649   48.332230
  O    -20.251758   25.902210   47.501468
  H    -20.515360   25.532696   45.497075
  H    -19.263112   27.660042   45.665180
  H    -20.897182   28.239067   45.250611
  H    -19.732143   29.158150   47.563728
  H    -21.436436   28.655823   47.591727
  H    -20.727987   27.048402   49.204863
  H    -19.030026   27.120229   48.664369
  C    -22.709657   24.854096   44.339038
  H    -23.564665   24.387166   43.829350
  C    -23.107121   25.305561   45.748713
  C    -23.044887   23.974887   46.528912
  C    -21.865508   23.220808   45.871301
  O    -21.633491   23.878291   44.552523
  H    -22.310787   25.656560   43.714497
  O    -22.274102   26.354647   46.324883
  H    -24.108277   25.744091   45.770212
  H    -22.886879   24.157446   47.594197
  H    -23.986477   23.428462   46.399113
  H    -22.076094   22.160902   45.697764
  H    -20.939918   23.321867   46.444133

 Multiplicity           Mult            ....    1
 Number of Electrons    NEL             ....   86
 Basis Dimension        Dim             ....  127

ORBITAL ENERGIES
----------------

  NO   OCC          E(Eh)            E(eV)
   0   2.0000     -19.137804      -520.7661
   1   2.0000     -19.136784      -520.7384
   2   2.0000     -19.132482      -520.6213
   3   2.0000     -10.266927      -279.3773
   4   2.0000     -10.240591      -278.6606
   5   2.0000     -10.227887      -278.3150
   6   2.0000     -10.221424      -278.1391
   7   2.0000     -10.218972      -278.0724
   8   2.0000     -10.182576      -277.0820
   9   2.0000     -10.179179      -276.9895
  10   2.0000     -10.178143      -276.9614
  11   2.0000      -1.046133       -28.4667
  12   2.0000      -1.016179       -27.6516
  13   2.0000      -0.985046       -26.8045
  14   2.0000      -0.787459       -21.4278
  15   2.0000      -0.771657       -20.9979
  16   2.0000      -0.740456       -20.1488
  17   2.0000      -0.718538       -19.5524
  18   2.0000      -0.615037       -16.7360
  19   2.0000      -0.598884       -16.2965
  20   2.0000      -0.591378       -16.0922
  21   2.0000      -0.564460       -15.3597
  22   2.0000      -0.521234       -14.1835
  23   2.0000      -0.501026       -13.6336
  24   2.0000      -0.476201       -12.9581
  25   2.0000      -0.474783       -12.9195
  26   2.0000      -0.449904       -12.2425
  27   2.0000      -0.445886       -12.1332
  28   2.0000      -0.418344       -11.3837
  29   2.0000      -0.412482       -11.2242
  30   2.0000      -0.398703       -10.8493
  31   2.0000      -0.391510       -10.6535
  32   2.0000      -0.369900       -10.0655
  33   2.0000      -0.368629       -10.0309
  34   2.0000      -0.354269        -9.6401
  35   2.0000      -0.349397        -9.5076
  36   2.0000      -0.339877        -9.2485
  37   2.0000      -0.316064        -8.6005
  38   2.0000      -0.312635        -8.5072
  39   2.0000      -0.295154        -8.0316
  40   2.0000      -0.265292        -7.2190
  41   2.0000      -0.243423        -6.6239
  42   2.0000      -0.236741        -6.4421
  43   0.0000       0.078974         2.1490
  44   0.0000       0.101684         2.7670
  45   0.0000       0.102495         2.7890
  46   0.0000       0.108470         2.9516
  47   0.0000       0.118766         3.2318

MULLIKEN ATOMIC CHARGES
-----------------------
   0 C :    0.257619
   1 C :   -0.251013
   2 C :   -0.297759
   3 C :   -0.000109
   4 O :   -0.516732
   5 H :    0.189332
   6 H :    0.142943
   7 H :    0.145776
   8 H :    0.136992
   9 H :    0.160863
  10 H :    0.144948
  11 H :    0.138949
  12 C :   -0.037142
  13 H :    0.137835
  14 C :    0.083944
  15 C :   -0.291605
  16 C :   -0.036046
  17 O :   -0.521749
  18 H :    0.159984
  19 O :   -0.526641
  20 H :    0.146744
  21 H :    0.175827
  22 H :    0.138680
  23 H :    0.144245
  24 H :    0.174116
Sum of atomic charges:   -0.0000000

LOEWDIN ATOMIC CHARGES
----------------------
   0 C :    0.161094
   1 C :   -0.216456
   2 C :   -0.216312
   3 C :   -0.027847
   4 O :   -0.327206
   5 H :    0.120685
   6 H :    0.112329
   7 H :    0.118069
   8 H :    0.111653
   9 H :    0.118539
  10 H :    0.104086
  11 H :    0.100586
  12 C :   -0.055768
  13 H :    0.100921
  14 C :    0.042224
  15 C :   -0.236677
  16 C :   -0.040075
  17 O :   -0.337388
  18 H :    0.115295
  19 O :   -0.327090
  20 H :    0.113190
  21 H :    0.133713
  22 H :    0.112336
  23 H :    0.103822
  24 H :    0.116279

  Mayer bond orders larger than 0.100000
B(  0-C ,  1-C ) :   0.9456 B(  0-C ,  4-O ) :   0.8980 B(  0-C ,  5-H ) :   0.8873
B(  0-C , 19-O ) :   0.8298 B(  1-C ,  2-C ) :   0.9562 B(  1-C ,  6-H ) :   0.9397
B(  1-C ,  7-H ) :   0.9391 B(  2-C ,  3-C ) :   0.9552 B(  2-C ,  8-H ) :   0.9459
B(  2-C ,  9-H ) :   0.9439 B(  3-C ,  4-O ) :   0.8399 B(  3-C , 10-H ) :   0.9358
B(  3-C , 11-H ) :   0.9403 B( 12-C , 13-H ) :   0.9153 B( 12-C , 14-C ) :   0.9208
B( 12-C , 17-O ) :   0.8533 B( 12-C , 18-H ) :   0.9315 B( 14-C , 15-C ) :   0.9238
B( 14-C , 19-O ) :   0.8820 B( 14-C , 20-H ) :   0.9372 B( 15-C , 16-C ) :   0.9488
B( 15-C , 21-H ) :   0.9325 B( 15-C , 22-H ) :   0.9381 B( 16-C , 17-O ) :   0.8337
B( 16-C , 23-H ) :   0.9359 B( 16-C , 24-H ) :   0.9273

FINAL SINGLE POINT ENERGY      -538.435837317168

DIPOLE MOMENT
-------------
                                X             Y             Z
Electronic contribution:     -0.00214      -1.79741      -1.12803
Nuclear contribution   :     -0.51252       2.21171       1.21420
                        -----------------------------------------
Total Dipole Moment    :     -0.51466       0.41430       0.08617
                        -----------------------------------------
Magnitude (a.u.)       :      0.66629
Magnitude (Debye)      :      1.69358

Rotational constants in cm-1:     0.076196     0.023852     0.022500
Rotational constants in MHz :  2284.288535   715.061279   674.533390

                             ****ORCA TERMINATED NORMALLY****
TOTAL RUN TIME: 0 days 0 hours 7 minutes 36 seconds 755 msec
