                         Program Version 4.2.1 -  RELEASE  -
|  1> # Test redundant internal optimization
|  2> #
|  3> ! RKS B3LYP  Opt TightSCF SmallPrint
|  4>
|  5> %basis
|  6>         Basis "6-31G"
|  7> end
|  8>
|  9> %geom
| 10> Constraints
| 11> { D 4  0  19  14  270.0   C } # D for Dihedral angle
| 12> { D 0  19  14  12  330.0   C } # D for Dihedral angle
| 13> { D 0  4  3  2   C } # D for Dihedral angle
| 14> { D 4  3  2  1   C } # D for Dihedral angle
| 15> { D 3  2  1  0   C } # D for Dihedral angle
| 16> { D 2  1  0  4   C } # D for Dihedral angle
| 17> { D 1  0  4  3   C } # D for Dihedral angle
| 18> { D 14  15  16  17   C } # D for Dihedral angle
| 19> { D 15  16  17  12   C } # D for Dihedral angle
| 20> { D 16  17  12  14   C } # D for Dihedral angle
| 21> { D 17  12  14  15   C } # D for Dihedral angle
| 22> { D 12  14  15  16   C } # D for Dihedral angle
| 23> end
| 24> end
| 25>
| 26>
| 27> #%pal
| 28> #nprocs 8
| 29> #end
| 30>
| 31> * xyz 0 1
| 32> C  -21.048   26.222   46.251
| 33> C  -20.361   27.558   45.944
| 34> C  -20.329   28.222   47.341
| 35> C  -20.110   27.022   48.296
| 36> O  -20.473   25.807   47.535
| 37> H  -20.833   25.428   45.533
| 38> H  -19.344   27.382   45.576
| 39> H  -20.898   28.157   45.201
| 40> H  -19.543   28.978   47.434
| 41> H  -21.289   28.710   47.548
| 42> H  -20.733   27.082   49.195
| 43> H  -19.064   26.913   48.597
| 44> C  -22.476   24.325   45.063
| 45> H  -23.141   23.571   44.613
| 46> C  -23.226   25.191   46.082
| 47> C  -23.264   24.261   47.317
| 48> C  -21.910   23.513   47.237
| 49> O  -21.422   23.673   45.849
| 50> H  -21.981   24.886   44.269
| 51> O  -22.472   26.381   46.366
| 52> H  -24.224   25.488   45.743
| 53> H  -23.384   24.808   48.258
| 54> H  -24.100   23.556   47.233
| 55> H  -22.005   22.445   47.463
| 56> H  -21.152   23.948   47.897
| 57> *
| 58>
| 59>                          ****END OF INPUT****
 Total Charge           Charge          ....    0
 Multiplicity           Mult            ....    1
 Number of Electrons    NEL             ....   86
FINAL SINGLE POINT ENERGY      -538.415684856088
FINAL SINGLE POINT ENERGY      -538.432973833519
FINAL SINGLE POINT ENERGY      -538.435326113038
FINAL SINGLE POINT ENERGY      -538.435785175243
FINAL SINGLE POINT ENERGY      -538.435836720586
FINAL SINGLE POINT ENERGY      -538.435854232080
                    ***********************HURRAY********************

CARTESIAN COORDINATES (ANGSTROEM)
---------------------------------
  C    -20.828538   26.268228   46.218774
  C    -20.336569   27.696850   45.973105
  C    -20.416252   28.307994   47.392897
  C    -20.040193   27.117635   48.305531
  O    -20.221386   25.896229   47.484559
  H    -20.505231   25.514128   45.503625
  H    -19.300574   27.665134   45.616686
  H    -20.952635   28.222030   45.240815
  H    -19.743500   29.160720   47.524534
  H    -21.439911   28.637886   47.591812
  H    -20.672984   27.046663   49.194460
  H    -18.990214   27.136536   48.613450
  C    -22.564823   24.156574   45.045304
  H    -23.385818   23.537598   44.654111
  C    -23.112541   25.159875   46.062283
  C    -23.255744   24.279426   47.318787
  C    -22.058925   23.304645   47.222015
  O    -21.607172   23.349748   45.801372
  H    -22.034031   24.608209   44.203866
  O    -22.268380   26.329110   46.323805
  H    -24.064631   25.594855   45.748131
  H    -23.233278   24.891086   48.223251
  H    -24.210107   23.740196   47.284624
  H    -22.327565   22.272521   47.468980
  H    -21.210995   23.633125   47.824223

 Multiplicity           Mult            ....    1
 Number of Electrons    NEL             ....   86
 Basis Dimension        Dim             ....  127

ORBITAL ENERGIES
----------------

  NO   OCC          E(Eh)            E(eV)
   0   2.0000     -19.137866      -520.7678
   1   2.0000     -19.133606      -520.6519
   2   2.0000     -19.130342      -520.5631
   3   2.0000     -10.270629      -279.4780
   4   2.0000     -10.239291      -278.6253
   5   2.0000     -10.226147      -278.2676
   6   2.0000     -10.220146      -278.1043
   7   2.0000     -10.212372      -277.8928
   8   2.0000     -10.180417      -277.0232
   9   2.0000     -10.179906      -277.0093
  10   2.0000     -10.179231      -276.9910
  11   2.0000      -1.047064       -28.4921
  12   2.0000      -1.011065       -27.5125
  13   2.0000      -0.984724       -26.7957
  14   2.0000      -0.788537       -21.4572
  15   2.0000      -0.771604       -20.9964
  16   2.0000      -0.735935       -20.0258
  17   2.0000      -0.719178       -19.5698
  18   2.0000      -0.616192       -16.7674
  19   2.0000      -0.593593       -16.1525
  20   2.0000      -0.592719       -16.1287
  21   2.0000      -0.562348       -15.3023
  22   2.0000      -0.521069       -14.1790
  23   2.0000      -0.499176       -13.5833
  24   2.0000      -0.478741       -13.0272
  25   2.0000      -0.473701       -12.8901
  26   2.0000      -0.448366       -12.2007
  27   2.0000      -0.444475       -12.0948
  28   2.0000      -0.418684       -11.3930
  29   2.0000      -0.409815       -11.1516
  30   2.0000      -0.396337       -10.7849
  31   2.0000      -0.386247       -10.5103
  32   2.0000      -0.370417       -10.0796
  33   2.0000      -0.364374        -9.9151
  34   2.0000      -0.354788        -9.6543
  35   2.0000      -0.350432        -9.5357
  36   2.0000      -0.338994        -9.2245
  37   2.0000      -0.317371        -8.6361
  38   2.0000      -0.308571        -8.3966
  39   2.0000      -0.292230        -7.9520
  40   2.0000      -0.265338        -7.2202
  41   2.0000      -0.244420        -6.6510
  42   2.0000      -0.232718        -6.3326
  43   0.0000       0.081078         2.2062
  44   0.0000       0.102120         2.7788
  45   0.0000       0.103665         2.8209
  46   0.0000       0.114138         3.1058
  47   0.0000       0.114630         3.1193

MULLIKEN ATOMIC CHARGES
-----------------------
   0 C :    0.279527
   1 C :   -0.253925
   2 C :   -0.296959
   3 C :   -0.001876
   4 O :   -0.510526
   5 H :    0.174537
   6 H :    0.143763
   7 H :    0.150358
   8 H :    0.137500
   9 H :    0.160621
  10 H :    0.141989
  11 H :    0.140586
  12 C :   -0.041049
  13 H :    0.135231
  14 C :    0.093694
  15 C :   -0.280264
  16 C :   -0.025420
  17 O :   -0.523945
  18 H :    0.153934
  19 O :   -0.534985
  20 H :    0.143325
  21 H :    0.161532
  22 H :    0.132512
  23 H :    0.133279
  24 H :    0.186562
Sum of atomic charges:   -0.0000000

LOEWDIN ATOMIC CHARGES
----------------------
   0 C :    0.169507
   1 C :   -0.215762
   2 C :   -0.215730
   3 C :   -0.029539
   4 O :   -0.326081
   5 H :    0.113303
   6 H :    0.112921
   7 H :    0.120961
   8 H :    0.111702
   9 H :    0.118311
  10 H :    0.102275
  11 H :    0.101336
  12 C :   -0.054397
  13 H :    0.099526
  14 C :    0.044203
  15 C :   -0.230941
  16 C :   -0.038296
  17 O :   -0.335831
  18 H :    0.111394
  19 O :   -0.327243
  20 H :    0.111014
  21 H :    0.127151
  22 H :    0.108854
  23 H :    0.098040
  24 H :    0.123323

  Mayer bond orders larger than 0.100000
B(  0-C ,  1-C ) :   0.9439 B(  0-C ,  4-O ) :   0.8908 B(  0-C ,  5-H ) :   0.9040
B(  0-C , 19-O ) :   0.8482 B(  1-C ,  2-C ) :   0.9567 B(  1-C ,  6-H ) :   0.9405
B(  1-C ,  7-H ) :   0.9379 B(  2-C ,  3-C ) :   0.9543 B(  2-C ,  8-H ) :   0.9459
B(  2-C ,  9-H ) :   0.9443 B(  3-C ,  4-O ) :   0.8415 B(  3-C , 10-H ) :   0.9359
B(  3-C , 11-H ) :   0.9401 B( 12-C , 13-H ) :   0.9147 B( 12-C , 14-C ) :   0.9250
B( 12-C , 17-O ) :   0.8626 B( 12-C , 18-H ) :   0.9291 B( 14-C , 15-C ) :   0.9291
B( 14-C , 19-O ) :   0.8609 B( 14-C , 20-H ) :   0.9360 B( 15-C , 16-C ) :   0.9503
B( 15-C , 21-H ) :   0.9375 B( 15-C , 22-H ) :   0.9388 B( 16-C , 17-O ) :   0.8325
B( 16-C , 23-H ) :   0.9346 B( 16-C , 24-H ) :   0.9176

FINAL SINGLE POINT ENERGY      -538.435854931207

DIPOLE MOMENT
-------------
                                X             Y             Z
Electronic contribution:      0.29399      -2.26265      -1.43124
Nuclear contribution   :     -0.83256       2.90765       1.46996
                        -----------------------------------------
Total Dipole Moment    :     -0.53856       0.64500       0.03872
                        -----------------------------------------
Magnitude (a.u.)       :      0.84117
Magnitude (Debye)      :      2.13809

Rotational constants in cm-1:     0.073776     0.025161     0.023515
Rotational constants in MHz :  2211.734474   754.302353   704.967338

                             ****ORCA TERMINATED NORMALLY****
TOTAL RUN TIME: 0 days 0 hours 7 minutes 42 seconds 582 msec
