                         Program Version 4.2.0 -  RELEASE  -
|  1> # Test redundant internal optimization
|  2> #
|  3> ! RKS B3LYP  Opt TightSCF SmallPrint
|  4>
|  5> %basis
|  6>         Basis "6-31G"
|  7> end
|  8>
|  9> %geom
| 10> Constraints
| 11> { D 4  0  15  12  270.0   C } # D for Dihedral angle
| 12> { D 0  15  12  16  15.0   C } # D for Dihedral angle
| 13> { D 0  4  3  2   C } # D for Dihedral angle
| 14> { D 4  3  2  1   C } # D for Dihedral angle
| 15> { D 3  2  1  0   C } # D for Dihedral angle
| 16> { D 2  1  0  4   C } # D for Dihedral angle
| 17> { D 1  0  4  3   C } # D for Dihedral angle
| 18> { D 16  20  19  18   C } # D for Dihedral angle
| 19> { D 20  19  18  17   C } # D for Dihedral angle
| 20> { D 19  18  17  16   C } # D for Dihedral angle
| 21> { D 18  17  16  20   C } # D for Dihedral angle
| 22> { D 17  16  20  19   C } # D for Dihedral angle
| 23> { D 15  12  16  20   C } # D for Dihedral angle
| 24> end
| 25> end
| 26>
| 27>
| 28> #%pal
| 29> #nprocs 8
| 30> #end
| 31>
| 32> * xyz 0 1
| 33> C  -21.048   26.222   46.251
| 34> C  -20.361   27.558   45.944
| 35> C  -20.329   28.222   47.341
| 36> C  -20.110   27.022   48.296
| 37> O  -20.473   25.807   47.535
| 38> H  -20.833   25.428   45.533
| 39> H  -19.344   27.382   45.576
| 40> H  -20.898   28.157   45.201
| 41> H  -19.543   28.978   47.434
| 42> H  -21.289   28.710   47.548
| 43> H  -20.733   27.082   49.195
| 44> H  -19.064   26.913   48.597
| 45> C  -23.420   25.119   46.072
| 46> H  -24.201   25.008   46.835
| 47> H  -23.906   25.202   45.092
| 48> O  -22.586   26.394   46.375
| 49> C  -22.558   23.826   46.064
| 50> C  -23.388   22.606   45.649
| 51> C  -23.437   22.768   44.111
| 52> C  -22.048   23.367   43.777
| 53> O  -21.511   23.914   45.041
| 54> H  -22.056   23.724   47.028
| 55> O  -22.647   21.298   46.040
| 56> H  -24.384   22.588   46.106
| 57> H  -23.621   21.823   43.590
| 58> H  -24.235   23.466   43.831
| 59> H  -22.105   24.170   43.034
| 60> H  -21.340   22.610   43.427
| 61> H  -21.647   21.295   45.592
| 62> *
| 63>
| 64>                          ****END OF INPUT****
 Total Charge           Charge          ....    0
 Multiplicity           Mult            ....    1
 Number of Electrons    NEL             ....  102
FINAL SINGLE POINT ENERGY      -652.827609727468
FINAL SINGLE POINT ENERGY      -652.849385587335
FINAL SINGLE POINT ENERGY      -652.858659962114
FINAL SINGLE POINT ENERGY      -652.860726207003
FINAL SINGLE POINT ENERGY      -652.861117124888
FINAL SINGLE POINT ENERGY      -652.861168870823
FINAL SINGLE POINT ENERGY      -652.861173808092
                    ***********************HURRAY********************

CARTESIAN COORDINATES (ANGSTROEM)
---------------------------------
  C    -20.861952   26.254887   46.206921
  C    -20.401155   27.700527   46.009134
  C    -20.499208   28.265339   47.447006
  C    -20.099824   27.054305   48.321640
  O    -20.251830   25.858331   47.460631
  H    -20.546804   25.529137   45.461783
  H    -19.363123   27.702195   45.656649
  H    -21.024021   28.236605   45.290413
  H    -19.845555   29.127916   47.608201
  H    -21.530540   28.565662   47.652413
  H    -20.734083   26.940123   49.205150
  H    -19.051401   27.086309   48.634633
  C    -23.146255   25.143556   46.046682
  H    -23.885304   25.108423   46.856810
  H    -23.683477   25.352293   45.110533
  O    -22.306272   26.300610   46.325175
  C    -22.472397   23.770574   45.960757
  C    -23.447942   22.630591   45.624280
  C    -23.527595   22.731197   44.076928
  C    -22.091066   23.156639   43.677646
  O    -21.452582   23.696848   44.904760
  H    -21.940835   23.574198   46.896994
  O    -22.921659   21.348074   46.056306
  H    -24.418761   22.722459   46.112480
  H    -23.824518   21.773657   43.642815
  H    -24.262968   23.488072   43.783529
  H    -22.078075   23.927526   42.900851
  H    -21.479653   22.313107   43.343276
  H    -21.966147   21.299838   45.840603

 Multiplicity           Mult            ....    1
 Number of Electrons    NEL             ....  102
 Basis Dimension        Dim             ....  149

ORBITAL ENERGIES
----------------

  NO   OCC          E(Eh)            E(eV)
   0   2.0000     -19.152395      -521.1632
   1   2.0000     -19.142885      -520.9044
   2   2.0000     -19.132809      -520.6302
   3   2.0000     -19.126150      -520.4490
   4   2.0000     -10.260620      -279.2057
   5   2.0000     -10.248557      -278.8774
   6   2.0000     -10.238614      -278.6069
   7   2.0000     -10.237978      -278.5895
   8   2.0000     -10.232938      -278.4524
   9   2.0000     -10.214380      -277.9474
  10   2.0000     -10.195171      -277.4247
  11   2.0000     -10.174879      -276.8725
  12   2.0000     -10.173959      -276.8475
  13   2.0000      -1.046255       -28.4701
  14   2.0000      -1.035960       -28.1899
  15   2.0000      -1.011810       -27.5328
  16   2.0000      -0.981314       -26.7029
  17   2.0000      -0.791019       -21.5247
  18   2.0000      -0.777735       -21.1633
  19   2.0000      -0.765396       -20.8275
  20   2.0000      -0.726250       -19.7623
  21   2.0000      -0.672972       -18.3125
  22   2.0000      -0.610326       -16.6078
  23   2.0000      -0.603120       -16.4117
  24   2.0000      -0.587052       -15.9745
  25   2.0000      -0.567160       -15.4332
  26   2.0000      -0.529785       -14.4162
  27   2.0000      -0.507902       -13.8207
  28   2.0000      -0.494331       -13.4514
  29   2.0000      -0.479666       -13.0524
  30   2.0000      -0.474786       -12.9196
  31   2.0000      -0.455299       -12.3893
  32   2.0000      -0.446573       -12.1519
  33   2.0000      -0.437715       -11.9108
  34   2.0000      -0.420010       -11.4291
  35   2.0000      -0.408989       -11.1292
  36   2.0000      -0.399208       -10.8630
  37   2.0000      -0.391842       -10.6626
  38   2.0000      -0.380135       -10.3440
  39   2.0000      -0.366995        -9.9864
  40   2.0000      -0.363757        -9.8983
  41   2.0000      -0.345888        -9.4121
  42   2.0000      -0.338656        -9.2153
  43   2.0000      -0.332801        -9.0560
  44   2.0000      -0.323904        -8.8139
  45   2.0000      -0.310649        -8.4532
  46   2.0000      -0.291518        -7.9326
  47   2.0000      -0.277589        -7.5536
  48   2.0000      -0.258252        -7.0274
  49   2.0000      -0.250966        -6.8291
  50   2.0000      -0.233605        -6.3567
  51   0.0000       0.060846         1.6557
  52   0.0000       0.083066         2.2603
  53   0.0000       0.089432         2.4336
  54   0.0000       0.098781         2.6880
  55   0.0000       0.105905         2.8818

MULLIKEN ATOMIC CHARGES
-----------------------
   0 C :    0.262796
   1 C :   -0.252605
   2 C :   -0.295304
   3 C :   -0.000253
   4 O :   -0.515742
   5 H :    0.197575
   6 H :    0.140465
   7 H :    0.147147
   8 H :    0.133769
   9 H :    0.159549
  10 H :    0.141677
  11 H :    0.137369
  12 C :    0.024139
  13 H :    0.147718
  14 H :    0.128414
  15 O :   -0.544780
  16 C :    0.032292
  17 C :    0.081161
  18 C :   -0.293095
  19 C :   -0.035937
  20 O :   -0.524353
  21 H :    0.189936
  22 O :   -0.600798
  23 H :    0.155723
  24 H :    0.164332
  25 H :    0.146848
  26 H :    0.151314
  27 H :    0.153013
  28 H :    0.367632
Sum of atomic charges:   -0.0000000

LOEWDIN ATOMIC CHARGES
----------------------
   0 C :    0.162744
   1 C :   -0.214525
   2 C :   -0.216181
   3 C :   -0.028978
   4 O :   -0.330991
   5 H :    0.123036
   6 H :    0.111108
   7 H :    0.119272
   8 H :    0.109760
   9 H :    0.117804
  10 H :    0.102268
  11 H :    0.099690
  12 C :   -0.035698
  13 H :    0.111777
  14 H :    0.094556
  15 O :   -0.333510
  16 C :    0.001298
  17 C :    0.040432
  18 C :   -0.239567
  19 C :   -0.040208
  20 O :   -0.328546
  21 H :    0.129056
  22 O :   -0.411795
  23 H :    0.117766
  24 H :    0.127839
  25 H :    0.114124
  26 H :    0.106343
  27 H :    0.105773
  28 H :    0.285353

  Mayer bond orders larger than 0.100000
B(  0-C ,  1-C ) :   0.9437 B(  0-C ,  4-O ) :   0.8972 B(  0-C ,  5-H ) :   0.8889
B(  0-C , 15-O ) :   0.8327 B(  1-C ,  2-C ) :   0.9561 B(  1-C ,  6-H ) :   0.9419
B(  1-C ,  7-H ) :   0.9388 B(  2-C ,  3-C ) :   0.9555 B(  2-C ,  8-H ) :   0.9465
B(  2-C ,  9-H ) :   0.9443 B(  3-C ,  4-O ) :   0.8439 B(  3-C , 10-H ) :   0.9362
B(  3-C , 11-H ) :   0.9406 B( 12-C , 13-H ) :   0.9216 B( 12-C , 14-H ) :   0.9254
B( 12-C , 15-O ) :   0.8542 B( 12-C , 16-C ) :   0.9041 B( 16-C , 17-C ) :   0.8940
B( 16-C , 20-O ) :   0.8283 B( 16-C , 21-H ) :   0.9136 B( 17-C , 18-C ) :   0.9092
B( 17-C , 22-O ) :   0.8955 B( 17-C , 23-H ) :   0.9333 B( 18-C , 19-C ) :   0.9424
B( 18-C , 24-H ) :   0.9370 B( 18-C , 25-H ) :   0.9328 B( 19-C , 20-O ) :   0.8388
B( 19-C , 26-H ) :   0.9344 B( 19-C , 27-H ) :   0.9372 B( 22-O , 28-H ) :   0.7932

FINAL SINGLE POINT ENERGY      -652.861174309604

DIPOLE MOMENT
-------------
                                X             Y             Z
Electronic contribution:      0.40491      -3.86621       1.21103
Nuclear contribution   :     -0.72104       4.25415      -2.05818
                        -----------------------------------------
Total Dipole Moment    :     -0.31613       0.38794      -0.84714
                        -----------------------------------------
Magnitude (a.u.)       :      0.98391
Magnitude (Debye)      :      2.50091

Rotational constants in cm-1:     0.063083     0.013017     0.012494
Rotational constants in MHz :  1891.173725   390.230015   374.574957

                             ****ORCA TERMINATED NORMALLY****
TOTAL RUN TIME: 0 days 1 hours 14 minutes 54 seconds 846 msec
