                         Program Version 4.2.0 -  RELEASE  -
|  1> # Test redundant internal optimization
|  2> #
|  3> ! RKS B3LYP  Opt TightSCF SmallPrint
|  4>
|  5> %basis
|  6>         Basis "6-31G"
|  7> end
|  8>
|  9> %geom
| 10> Constraints
| 11> { D 4  0  15  12  15.0   C } # D for Dihedral angle
| 12> { D 0  15  12  16  150.0   C } # D for Dihedral angle
| 13> { D 0  4  3  2   C } # D for Dihedral angle
| 14> { D 4  3  2  1   C } # D for Dihedral angle
| 15> { D 3  2  1  0   C } # D for Dihedral angle
| 16> { D 2  1  0  4   C } # D for Dihedral angle
| 17> { D 1  0  4  3   C } # D for Dihedral angle
| 18> { D 16  20  19  18   C } # D for Dihedral angle
| 19> { D 20  19  18  17   C } # D for Dihedral angle
| 20> { D 19  18  17  16   C } # D for Dihedral angle
| 21> { D 18  17  16  20   C } # D for Dihedral angle
| 22> { D 17  16  20  19   C } # D for Dihedral angle
| 23> { D 15  12  16  20   C } # D for Dihedral angle
| 24> end
| 25> end
| 26>
| 27>
| 28> #%pal
| 29> #nprocs 8
| 30> #end
| 31>
| 32> * xyz 0 1
| 33> C  -21.048   26.222   46.251
| 34> C  -20.361   27.558   45.944
| 35> C  -20.329   28.222   47.341
| 36> C  -20.110   27.022   48.296
| 37> O  -20.473   25.807   47.535
| 38> H  -20.833   25.428   45.533
| 39> H  -19.344   27.382   45.576
| 40> H  -20.898   28.157   45.201
| 41> H  -19.543   28.978   47.434
| 42> H  -21.289   28.710   47.548
| 43> H  -20.733   27.082   49.195
| 44> H  -19.064   26.913   48.597
| 45> C  -23.128   26.462   47.829
| 46> H  -23.360   25.448   48.177
| 47> H  -22.372   26.890   48.501
| 48> O  -22.586   26.394   46.375
| 49> C  -24.413   27.327   47.951
| 50> C  -25.578   26.704   47.174
| 51> C  -26.047   25.595   48.147
| 52> C  -25.817   26.231   49.541
| 53> O  -24.880   27.357   49.341
| 54> H  -24.180   28.356   47.670
| 55> O  -26.700   27.758   46.963
| 56> H  -25.284   26.314   46.194
| 57> H  -27.089   25.304   47.987
| 58> H  -25.426   24.700   48.023
| 59> H  -25.383   25.526   50.257
| 60> H  -26.735   26.646   49.966
| 61> H  -27.013   28.163   47.932
| 62> *
| 63>
| 64>                          ****END OF INPUT****
 Total Charge           Charge          ....    0
 Multiplicity           Mult            ....    1
 Number of Electrons    NEL             ....  102
FINAL SINGLE POINT ENERGY      -652.830912327007
FINAL SINGLE POINT ENERGY      -652.854628890784
FINAL SINGLE POINT ENERGY      -652.858535987039
FINAL SINGLE POINT ENERGY      -652.860833911981
FINAL SINGLE POINT ENERGY      -652.860993284019
FINAL SINGLE POINT ENERGY      -652.861034068332
                    ***********************HURRAY********************

CARTESIAN COORDINATES (ANGSTROEM)
---------------------------------
  C    -21.179165   26.272580   46.390801
  C    -20.565325   27.609709   45.968276
  C    -20.256498   28.266110   47.337744
  C    -19.855630   27.060263   48.218644
  O    -20.375589   25.854875   47.514373
  H    -21.093349   25.485843   45.638309
  H    -19.643044   27.420180   45.406918
  H    -21.246317   28.197276   45.348835
  H    -19.460180   29.014073   47.276513
  H    -21.151096   28.761558   47.730539
  H    -20.278665   27.093087   49.226575
  H    -18.771384   26.932598   48.291296
  C    -23.111665   26.401387   48.025473
  H    -23.305412   25.377565   48.368574
  H    -22.408868   26.856932   48.726597
  O    -22.605420   26.380393   46.660973
  C    -24.391462   27.235845   48.005491
  C    -25.526371   26.665712   47.143921
  C    -26.120850   25.586322   48.083736
  C    -25.965134   26.216203   49.491059
  O    -24.957013   27.298293   49.358685
  H    -24.153921   28.260331   47.705358
  O    -26.501513   27.698692   46.824160
  H    -25.179521   26.277978   46.187967
  H    -27.161197   25.376707   47.823935
  H    -25.551894   24.654542   47.999619
  H    -25.620431   25.499584   50.243027
  H    -26.889415   26.679965   49.849477
  H    -26.689671   28.221397   47.632127

 Multiplicity           Mult            ....    1
 Number of Electrons    NEL             ....  102
 Basis Dimension        Dim             ....  149

ORBITAL ENERGIES
----------------

  NO   OCC          E(Eh)            E(eV)
   0   2.0000     -19.152235      -521.1588
   1   2.0000     -19.143500      -520.9211
   2   2.0000     -19.141085      -520.8554
   3   2.0000     -19.132548      -520.6231
   4   2.0000     -10.281718      -279.7798
   5   2.0000     -10.235014      -278.5089
   6   2.0000     -10.232650      -278.4446
   7   2.0000     -10.230780      -278.3937
   8   2.0000     -10.230272      -278.3799
   9   2.0000     -10.229377      -278.3555
  10   2.0000     -10.194425      -277.4044
  11   2.0000     -10.187991      -277.2293
  12   2.0000     -10.185000      -277.1479
  13   2.0000      -1.056561       -28.7505
  14   2.0000      -1.034032       -28.1374
  15   2.0000      -1.001993       -27.2656
  16   2.0000      -0.995576       -27.0910
  17   2.0000      -0.792741       -21.5716
  18   2.0000      -0.779210       -21.2034
  19   2.0000      -0.768844       -20.9213
  20   2.0000      -0.733491       -19.9593
  21   2.0000      -0.673836       -18.3360
  22   2.0000      -0.606470       -16.5029
  23   2.0000      -0.602371       -16.3914
  24   2.0000      -0.593961       -16.1625
  25   2.0000      -0.576191       -15.6789
  26   2.0000      -0.525641       -14.3034
  27   2.0000      -0.512141       -13.9361
  28   2.0000      -0.501947       -13.6587
  29   2.0000      -0.491722       -13.3804
  30   2.0000      -0.473683       -12.8896
  31   2.0000      -0.456872       -12.4321
  32   2.0000      -0.445759       -12.1297
  33   2.0000      -0.438474       -11.9315
  34   2.0000      -0.422143       -11.4871
  35   2.0000      -0.418445       -11.3865
  36   2.0000      -0.402758       -10.9596
  37   2.0000      -0.390238       -10.6189
  38   2.0000      -0.378044       -10.2871
  39   2.0000      -0.364874        -9.9287
  40   2.0000      -0.363060        -9.8794
  41   2.0000      -0.355908        -9.6847
  42   2.0000      -0.351299        -9.5593
  43   2.0000      -0.341168        -9.2836
  44   2.0000      -0.323673        -8.8076
  45   2.0000      -0.313502        -8.5308
  46   2.0000      -0.301990        -8.2176
  47   2.0000      -0.270275        -7.3545
  48   2.0000      -0.265337        -7.2202
  49   2.0000      -0.253201        -6.8900
  50   2.0000      -0.242319        -6.5938
  51   0.0000       0.065875         1.7925
  52   0.0000       0.067183         1.8281
  53   0.0000       0.094299         2.5660
  54   0.0000       0.097333         2.6486
  55   0.0000       0.101475         2.7613

MULLIKEN ATOMIC CHARGES
-----------------------
   0 C :    0.303346
   1 C :   -0.259243
   2 C :   -0.313315
   3 C :   -0.024339
   4 O :   -0.508860
   5 H :    0.160746
   6 H :    0.147363
   7 H :    0.160396
   8 H :    0.150868
   9 H :    0.155375
  10 H :    0.150454
  11 H :    0.153605
  12 C :    0.004628
  13 H :    0.137446
  14 H :    0.149164
  15 O :   -0.548320
  16 C :    0.059682
  17 C :    0.090391
  18 C :   -0.295991
  19 C :   -0.033956
  20 O :   -0.530421
  21 H :    0.156293
  22 O :   -0.603696
  23 H :    0.175950
  24 H :    0.159789
  25 H :    0.147945
  26 H :    0.148401
  27 H :    0.145365
  28 H :    0.360934
Sum of atomic charges:   -0.0000000

LOEWDIN ATOMIC CHARGES
----------------------
   0 C :    0.183492
   1 C :   -0.223504
   2 C :   -0.221591
   3 C :   -0.035569
   4 O :   -0.317577
   5 H :    0.108202
   6 H :    0.115490
   7 H :    0.125259
   8 H :    0.119208
   9 H :    0.113440
  10 H :    0.103355
  11 H :    0.107899
  12 C :   -0.033048
  13 H :    0.098221
  14 H :    0.106501
  15 O :   -0.344200
  16 C :    0.015586
  17 C :    0.038391
  18 C :   -0.240681
  19 C :   -0.038909
  20 O :   -0.333728
  21 H :    0.113299
  22 O :   -0.415865
  23 H :    0.128330
  24 H :    0.125880
  25 H :    0.115502
  26 H :    0.104440
  27 H :    0.101884
  28 H :    0.280292

  Mayer bond orders larger than 0.100000
B(  0-C ,  1-C ) :   0.9244 B(  0-C ,  4-O ) :   0.9172 B(  0-C ,  5-H ) :   0.9326
B(  0-C , 15-O ) :   0.8444 B(  1-C ,  2-C ) :   0.9528 B(  1-C ,  6-H ) :   0.9345
B(  1-C ,  7-H ) :   0.9361 B(  2-C ,  3-C ) :   0.9512 B(  2-C ,  8-H ) :   0.9444
B(  2-C ,  9-H ) :   0.9439 B(  3-C ,  4-O ) :   0.8307 B(  3-C , 10-H ) :   0.9281
B(  3-C , 11-H ) :   0.9388 B( 12-C , 13-H ) :   0.9265 B( 12-C , 14-H ) :   0.9102
B( 12-C , 15-O ) :   0.8118 B( 12-C , 16-C ) :   0.8982 B( 16-C , 17-C ) :   0.9145
B( 16-C , 20-O ) :   0.8425 B( 16-C , 21-H ) :   0.9254 B( 17-C , 18-C ) :   0.9137
B( 17-C , 22-O ) :   0.8884 B( 17-C , 23-H ) :   0.9241 B( 18-C , 19-C ) :   0.9415
B( 18-C , 24-H ) :   0.9381 B( 18-C , 25-H ) :   0.9342 B( 19-C , 20-O ) :   0.8419
B( 19-C , 26-H ) :   0.9351 B( 19-C , 27-H ) :   0.9382 B( 22-O , 28-H ) :   0.7969

FINAL SINGLE POINT ENERGY      -652.861037901693

DIPOLE MOMENT
-------------
                                X             Y             Z
Electronic contribution:     -1.97627      -0.82967      -0.98624
Nuclear contribution   :      2.54379       0.97237       1.38914
                        -----------------------------------------
Total Dipole Moment    :      0.56752       0.14269       0.40290
                        -----------------------------------------
Magnitude (a.u.)       :      0.71047
Magnitude (Debye)      :      1.80587

Rotational constants in cm-1:     0.055781     0.013099     0.012465
Rotational constants in MHz :  1672.260151   392.693705   373.685123

                             ****ORCA TERMINATED NORMALLY****
TOTAL RUN TIME: 0 days 0 hours 19 minutes 39 seconds 124 msec
