                         Program Version 4.2.1 -  RELEASE  -
|  1> # Test redundant internal optimization
|  2> #
|  3> ! RKS B3LYP  Opt TightSCF SmallPrint
|  4>
|  5> %basis
|  6>         Basis "6-31G"
|  7> end
|  8>
|  9> %geom
| 10> Constraints
| 11> { D 4  0  19  14  195.0   C } # D for Dihedral angle
| 12> { D 0  19  14  12  60.0   C } # D for Dihedral angle
| 13> { D 0  4  3  2   C } # D for Dihedral angle
| 14> { D 4  3  2  1   C } # D for Dihedral angle
| 15> { D 3  2  1  0   C } # D for Dihedral angle
| 16> { D 2  1  0  4   C } # D for Dihedral angle
| 17> { D 1  0  4  3   C } # D for Dihedral angle
| 18> { D 14  15  16  17   C } # D for Dihedral angle
| 19> { D 15  16  17  12   C } # D for Dihedral angle
| 20> { D 16  17  12  14   C } # D for Dihedral angle
| 21> { D 17  12  14  15   C } # D for Dihedral angle
| 22> { D 12  14  15  16   C } # D for Dihedral angle
| 23> end
| 24> end
| 25>
| 26>
| 27> #%pal
| 28> #nprocs 8
| 29> #end
| 30>
| 31> * xyz 0 1
| 32> C  -21.048   26.222   46.251
| 33> C  -20.361   27.558   45.944
| 34> C  -20.329   28.222   47.341
| 35> C  -20.110   27.022   48.296
| 36> O  -20.473   25.807   47.535
| 37> H  -20.833   25.428   45.533
| 38> H  -19.344   27.382   45.576
| 39> H  -20.898   28.157   45.201
| 40> H  -19.543   28.978   47.434
| 41> H  -21.289   28.710   47.548
| 42> H  -20.733   27.082   49.195
| 43> H  -19.064   26.913   48.597
| 44> C  -22.928   25.166   44.307
| 45> H  -23.192   25.301   43.246
| 46> C  -23.163   26.451   45.109
| 47> C  -24.694   26.411   45.324
| 48> C  -24.988   24.899   45.487
| 49> O  -23.818   24.182   44.934
| 50> H  -21.914   24.769   44.376
| 51> O  -22.472   26.381   46.366
| 52> H  -22.832   27.353   44.582
| 53> H  -25.017   26.995   46.192
| 54> H  -25.210   26.812   44.442
| 55> H  -25.889   24.585   44.948
| 56> H  -25.082   24.602   46.536
| 57> *
| 58>
| 59>                          ****END OF INPUT****
 Total Charge           Charge          ....    0
 Multiplicity           Mult            ....    1
 Number of Electrons    NEL             ....   86
FINAL SINGLE POINT ENERGY      -538.422976984851
FINAL SINGLE POINT ENERGY      -538.428997232488
FINAL SINGLE POINT ENERGY      -538.429544343924
FINAL SINGLE POINT ENERGY      -538.429668607386
FINAL SINGLE POINT ENERGY      -538.429689236142
FINAL SINGLE POINT ENERGY      -538.429694424246
                    ***********************HURRAY********************

CARTESIAN COORDINATES (ANGSTROEM)
---------------------------------
  C    -20.967785   26.204695   46.236127
  C    -20.250726   27.525936   45.964341
  C    -20.359729   28.238181   47.334819
  C    -20.245426   27.071283   48.337821
  O    -20.538574   25.840440   47.556876
  H    -20.699318   25.379703   45.573342
  H    -19.203570   27.325289   45.708614
  H    -20.699167   28.101088   45.148725
  H    -19.580314   28.992332   47.479419
  H    -21.335217   28.725669   47.420298
  H    -20.959199   27.139047   49.162589
  H    -19.234905   26.952328   48.739861
  C    -23.025069   25.174314   44.160778
  H    -23.414369   25.379635   43.151679
  C    -23.148597   26.432264   45.019601
  C    -24.637971   26.396408   45.410394
  C    -24.933172   24.886220   45.563586
  O    -23.842620   24.178551   44.854316
  H    -22.020446   24.759013   44.070262
  O    -22.411609   26.384972   46.278311
  H    -22.880267   27.339774   44.458770
  H    -24.803929   26.960174   46.330948
  H    -25.240899   26.842016   44.610761
  H    -25.892927   24.597750   45.121932
  H    -24.898196   24.560921   46.605829

 Multiplicity           Mult            ....    1
 Number of Electrons    NEL             ....   86
 Basis Dimension        Dim             ....  127

ORBITAL ENERGIES
----------------

  NO   OCC          E(Eh)            E(eV)
   0   2.0000     -19.139626      -520.8157
   1   2.0000     -19.138077      -520.7736
   2   2.0000     -19.128354      -520.5090
   3   2.0000     -10.277669      -279.6696
   4   2.0000     -10.243062      -278.7279
   5   2.0000     -10.226102      -278.2664
   6   2.0000     -10.223453      -278.1943
   7   2.0000     -10.218151      -278.0500
   8   2.0000     -10.187307      -277.2107
   9   2.0000     -10.186255      -277.1821
  10   2.0000     -10.185353      -277.1576
  11   2.0000      -1.052333       -28.6354
  12   2.0000      -1.014502       -27.6060
  13   2.0000      -0.988393       -26.8955
  14   2.0000      -0.789305       -21.4781
  15   2.0000      -0.779820       -21.2200
  16   2.0000      -0.737390       -20.0654
  17   2.0000      -0.725940       -19.7538
  18   2.0000      -0.618367       -16.8266
  19   2.0000      -0.600804       -16.3487
  20   2.0000      -0.592067       -16.1110
  21   2.0000      -0.566622       -15.4186
  22   2.0000      -0.528000       -14.3676
  23   2.0000      -0.497260       -13.5311
  24   2.0000      -0.492161       -13.3924
  25   2.0000      -0.479311       -13.0427
  26   2.0000      -0.450781       -12.2664
  27   2.0000      -0.449517       -12.2320
  28   2.0000      -0.429120       -11.6770
  29   2.0000      -0.419057       -11.4031
  30   2.0000      -0.400982       -10.9113
  31   2.0000      -0.376760       -10.2522
  32   2.0000      -0.374032       -10.1779
  33   2.0000      -0.365346        -9.9416
  34   2.0000      -0.364330        -9.9139
  35   2.0000      -0.355435        -9.6719
  36   2.0000      -0.350361        -9.5338
  37   2.0000      -0.311423        -8.4742
  38   2.0000      -0.310432        -8.4473
  39   2.0000      -0.297697        -8.1007
  40   2.0000      -0.257941        -7.0189
  41   2.0000      -0.250594        -6.8190
  42   2.0000      -0.235538        -6.4093
  43   0.0000       0.073608         2.0030
  44   0.0000       0.096494         2.6257
  45   0.0000       0.101772         2.7694
  46   0.0000       0.108059         2.9404
  47   0.0000       0.114938         3.1276

MULLIKEN ATOMIC CHARGES
-----------------------
   0 C :    0.298880
   1 C :   -0.272227
   2 C :   -0.296294
   3 C :   -0.001415
   4 O :   -0.500637
   5 H :    0.145274
   6 H :    0.145808
   7 H :    0.139393
   8 H :    0.141354
   9 H :    0.158029
  10 H :    0.153430
  11 H :    0.141507
  12 C :   -0.014278
  13 H :    0.127828
  14 C :    0.070104
  15 C :   -0.291906
  16 C :    0.008446
  17 O :   -0.517005
  18 H :    0.154947
  19 O :   -0.509020
  20 H :    0.120460
  21 H :    0.166928
  22 H :    0.139263
  23 H :    0.131445
  24 H :    0.159687
Sum of atomic charges:   -0.0000000

LOEWDIN ATOMIC CHARGES
----------------------
   0 C :    0.179283
   1 C :   -0.230558
   2 C :   -0.216425
   3 C :   -0.025513
   4 O :   -0.302783
   5 H :    0.098499
   6 H :    0.114243
   7 H :    0.111829
   8 H :    0.113914
   9 H :    0.116980
  10 H :    0.108897
  11 H :    0.102283
  12 C :   -0.049716
  13 H :    0.094049
  14 C :    0.035931
  15 C :   -0.222081
  16 C :   -0.025049
  17 O :   -0.328448
  18 H :    0.112042
  19 O :   -0.326514
  20 H :    0.089316
  21 H :    0.130155
  22 H :    0.110628
  23 H :    0.097052
  24 H :    0.111988

  Mayer bond orders larger than 0.100000
B(  0-C ,  1-C ) :   0.9286 B(  0-C ,  4-O ) :   0.9357 B(  0-C ,  5-H ) :   0.9149
B(  0-C , 19-O ) :   0.8321 B(  1-C ,  2-C ) :   0.9526 B(  1-C ,  6-H ) :   0.9346
B(  1-C ,  7-H ) :   0.9357 B(  2-C ,  3-C ) :   0.9553 B(  2-C ,  8-H ) :   0.9452
B(  2-C ,  9-H ) :   0.9450 B(  3-C ,  4-O ) :   0.8378 B(  3-C , 10-H ) :   0.9345
B(  3-C , 11-H ) :   0.9397 B( 12-C , 13-H ) :   0.9079 B( 12-C , 14-C ) :   0.9083
B( 12-C , 17-O ) :   0.8797 B( 12-C , 18-H ) :   0.9269 B( 14-C , 15-C ) :   0.9564
B( 14-C , 19-O ) :   0.8442 B( 14-C , 20-H ) :   0.9155 B( 15-C , 16-C ) :   0.9449
B( 15-C , 21-H ) :   0.9353 B( 15-C , 22-H ) :   0.9421 B( 16-C , 17-O ) :   0.8514
B( 16-C , 23-H ) :   0.9340 B( 16-C , 24-H ) :   0.9360

FINAL SINGLE POINT ENERGY      -538.429694920779

DIPOLE MOMENT
-------------
                                X             Y             Z
Electronic contribution:     -0.03785      -4.36056       0.71159
Nuclear contribution   :      0.16900       5.90658      -1.29245
                        -----------------------------------------
Total Dipole Moment    :      0.13115       1.54602      -0.58086
                        -----------------------------------------
Magnitude (a.u.)       :      1.65674
Magnitude (Debye)      :      4.21109

Rotational constants in cm-1:     0.083985     0.019923     0.019723
Rotational constants in MHz :  2517.804178   597.273657   591.266215

                             ****ORCA TERMINATED NORMALLY****
TOTAL RUN TIME: 0 days 0 hours 6 minutes 44 seconds 907 msec
