                         Program Version 4.2.1 -  RELEASE  -
|  1> # Test redundant internal optimization
|  2> #
|  3> ! RKS B3LYP  Opt TightSCF SmallPrint
|  4>
|  5> %basis
|  6>         Basis "6-31G"
|  7> end
|  8>
|  9> %geom
| 10> Constraints
| 11> { D 4  0  19  14  300.0   C } # D for Dihedral angle
| 12> { D 0  19  14  12  60.0   C } # D for Dihedral angle
| 13> { D 0  4  3  2   C } # D for Dihedral angle
| 14> { D 4  3  2  1   C } # D for Dihedral angle
| 15> { D 3  2  1  0   C } # D for Dihedral angle
| 16> { D 2  1  0  4   C } # D for Dihedral angle
| 17> { D 1  0  4  3   C } # D for Dihedral angle
| 18> { D 14  15  16  17   C } # D for Dihedral angle
| 19> { D 15  16  17  12   C } # D for Dihedral angle
| 20> { D 16  17  12  14   C } # D for Dihedral angle
| 21> { D 17  12  14  15   C } # D for Dihedral angle
| 22> { D 12  14  15  16   C } # D for Dihedral angle
| 23> end
| 24> end
| 25>
| 26>
| 27> #%pal
| 28> #nprocs 8
| 29> #end
| 30>
| 31> * xyz 0 1
| 32> C  -21.048   26.222   46.251
| 33> C  -20.361   27.558   45.944
| 34> C  -20.329   28.222   47.341
| 35> C  -20.110   27.022   48.296
| 36> O  -20.473   25.807   47.535
| 37> H  -20.833   25.428   45.533
| 38> H  -19.344   27.382   45.576
| 39> H  -20.898   28.157   45.201
| 40> H  -19.543   28.978   47.434
| 41> H  -21.289   28.710   47.548
| 42> H  -20.733   27.082   49.195
| 43> H  -19.064   26.913   48.597
| 44> C  -22.671   24.711   48.126
| 45> H  -22.965   23.668   48.318
| 46> C  -23.171   25.189   46.758
| 47> C  -24.656   25.500   47.058
| 48> C  -24.616   26.043   48.508
| 49> O  -23.323   25.612   49.083
| 50> H  -21.595   24.813   48.275
| 51> O  -22.472   26.381   46.366
| 52> H  -23.045   24.439   45.969
| 53> H  -25.091   26.218   46.355
| 54> H  -25.252   24.580   47.006
| 55> H  -25.432   25.652   49.126
| 56> H  -24.636   27.137   48.545
| 57> *
| 58>
| 59>                          ****END OF INPUT****
 Total Charge           Charge          ....    0
 Multiplicity           Mult            ....    1
 Number of Electrons    NEL             ....   86
FINAL SINGLE POINT ENERGY      -538.421561555367
FINAL SINGLE POINT ENERGY      -538.435429042876
FINAL SINGLE POINT ENERGY      -538.437844712716
FINAL SINGLE POINT ENERGY      -538.438459315061
FINAL SINGLE POINT ENERGY      -538.438516457003
FINAL SINGLE POINT ENERGY      -538.438531142096
                    ***********************HURRAY********************

CARTESIAN COORDINATES (ANGSTROEM)
---------------------------------
  C    -20.934346   26.176997   46.260885
  C    -20.458383   27.596465   45.948808
  C    -20.453525   28.243597   47.352961
  C    -20.024413   27.081088   48.276238
  O    -20.256863   25.835673   47.493034
  H    -20.653435   25.401232   45.539867
  H    -19.447125   27.554607   45.528116
  H    -21.119687   28.101382   45.241988
  H    -19.773500   29.098309   47.419282
  H    -21.462737   28.579946   47.604858
  H    -20.616358   27.021903   49.191949
  H    -18.958778   27.099116   48.521654
  C    -22.786858   24.534411   48.185878
  H    -23.266131   23.551023   48.315551
  C    -23.142445   25.083589   46.803611
  C    -24.576047   25.598829   47.033787
  C    -24.538056   26.124696   48.489274
  O    -23.351163   25.512613   49.122653
  H    -21.720363   24.467398   48.380615
  O    -22.372317   26.254305   46.380910
  H    -23.080833   24.309720   46.024668
  H    -24.832207   26.371294   46.305078
  H    -25.284443   24.768890   46.930491
  H    -25.432982   25.847171   49.058100
  H    -24.407006   27.209747   48.533743

 Multiplicity           Mult            ....    1
 Number of Electrons    NEL             ....   86
 Basis Dimension        Dim             ....  127

ORBITAL ENERGIES
----------------

  NO   OCC          E(Eh)            E(eV)
   0   2.0000     -19.141207      -520.8587
   1   2.0000     -19.140349      -520.8354
   2   2.0000     -19.124080      -520.3927
   3   2.0000     -10.277815      -279.6736
   4   2.0000     -10.237117      -278.5661
   5   2.0000     -10.220438      -278.1123
   6   2.0000     -10.216859      -278.0149
   7   2.0000     -10.209782      -277.8223
   8   2.0000     -10.182809      -277.0883
   9   2.0000     -10.182095      -277.0689
  10   2.0000     -10.181443      -277.0511
  11   2.0000      -1.051702       -28.6183
  12   2.0000      -1.008255       -27.4360
  13   2.0000      -0.987627       -26.8747
  14   2.0000      -0.791341       -21.5335
  15   2.0000      -0.773072       -21.0364
  16   2.0000      -0.732633       -19.9360
  17   2.0000      -0.718011       -19.5381
  18   2.0000      -0.609063       -16.5734
  19   2.0000      -0.597414       -16.2565
  20   2.0000      -0.588586       -16.0163
  21   2.0000      -0.569354       -15.4929
  22   2.0000      -0.514771       -14.0076
  23   2.0000      -0.500405       -13.6167
  24   2.0000      -0.480350       -13.0710
  25   2.0000      -0.476248       -12.9594
  26   2.0000      -0.446750       -12.1567
  27   2.0000      -0.443998       -12.0818
  28   2.0000      -0.424807       -11.5596
  29   2.0000      -0.406558       -11.0630
  30   2.0000      -0.399196       -10.8627
  31   2.0000      -0.382858       -10.4181
  32   2.0000      -0.364770        -9.9259
  33   2.0000      -0.362701        -9.8696
  34   2.0000      -0.354131        -9.6364
  35   2.0000      -0.353169        -9.6102
  36   2.0000      -0.339656        -9.2425
  37   2.0000      -0.325320        -8.8524
  38   2.0000      -0.300700        -8.1825
  39   2.0000      -0.295444        -8.0394
  40   2.0000      -0.265059        -7.2126
  41   2.0000      -0.249679        -6.7941
  42   2.0000      -0.230556        -6.2738
  43   0.0000       0.082934         2.2567
  44   0.0000       0.097784         2.6608
  45   0.0000       0.102061         2.7772
  46   0.0000       0.116260         3.1636
  47   0.0000       0.126124         3.4320

MULLIKEN ATOMIC CHARGES
-----------------------
   0 C :    0.298617
   1 C :   -0.262327
   2 C :   -0.296506
   3 C :   -0.011402
   4 O :   -0.515855
   5 H :    0.139478
   6 H :    0.143325
   7 H :    0.157573
   8 H :    0.139160
   9 H :    0.163805
  10 H :    0.169051
  11 H :    0.141377
  12 C :   -0.021188
  13 H :    0.115075
  14 C :    0.077244
  15 C :   -0.295083
  16 C :    0.000862
  17 O :   -0.526188
  18 H :    0.201971
  19 O :   -0.529727
  20 H :    0.126206
  21 H :    0.162295
  22 H :    0.140827
  23 H :    0.132301
  24 H :    0.149113
Sum of atomic charges:    0.0000000

LOEWDIN ATOMIC CHARGES
----------------------
   0 C :    0.175890
   1 C :   -0.214172
   2 C :   -0.214764
   3 C :   -0.029487
   4 O :   -0.326688
   5 H :    0.094243
   6 H :    0.112955
   7 H :    0.124338
   8 H :    0.112851
   9 H :    0.119832
  10 H :    0.116365
  11 H :    0.102373
  12 C :   -0.056186
  13 H :    0.088031
  14 C :    0.040841
  15 C :   -0.224850
  16 C :   -0.030076
  17 O :   -0.334227
  18 H :    0.136006
  19 O :   -0.328536
  20 H :    0.094905
  21 H :    0.127353
  22 H :    0.111701
  23 H :    0.096484
  24 H :    0.104819

  Mayer bond orders larger than 0.100000
B(  0-C ,  1-C ) :   0.9490 B(  0-C ,  4-O ) :   0.8994 B(  0-C ,  5-H ) :   0.9218
B(  0-C , 19-O ) :   0.8566 B(  1-C ,  2-C ) :   0.9572 B(  1-C ,  6-H ) :   0.9403
B(  1-C ,  7-H ) :   0.9364 B(  2-C ,  3-C ) :   0.9571 B(  2-C ,  8-H ) :   0.9451
B(  2-C ,  9-H ) :   0.9435 B(  3-C ,  4-O ) :   0.8226 B(  3-C , 10-H ) :   0.9289
B(  3-C , 11-H ) :   0.9402 B( 12-C , 13-H ) :   0.9099 B( 12-C , 14-C ) :   0.9164
B( 12-C , 17-O ) :   0.8602 B( 12-C , 18-H ) :   0.9043 B( 14-C , 15-C ) :   0.9591
B( 14-C , 19-O ) :   0.8317 B( 14-C , 20-H ) :   0.9216 B( 15-C , 16-C ) :   0.9473
B( 15-C , 21-H ) :   0.9361 B( 15-C , 22-H ) :   0.9424 B( 16-C , 17-O ) :   0.8602
B( 16-C , 23-H ) :   0.9330 B( 16-C , 24-H ) :   0.9370

FINAL SINGLE POINT ENERGY      -538.438532223562

DIPOLE MOMENT
-------------
                                X             Y             Z
Electronic contribution:      0.77137      -2.42124       0.32494
Nuclear contribution   :     -0.86718       2.67977      -1.05853
                        -----------------------------------------
Total Dipole Moment    :     -0.09581       0.25853      -0.73359
                        -----------------------------------------
Magnitude (a.u.)       :      0.78369
Magnitude (Debye)      :      1.99198

Rotational constants in cm-1:     0.067330     0.026072     0.024417
Rotational constants in MHz :  2018.512749   781.632267   731.998877

                             ****ORCA TERMINATED NORMALLY****
TOTAL RUN TIME: 0 days 0 hours 7 minutes 34 seconds 591 msec
