                         Program Version 4.2.0 -  RELEASE  -
|  1> # Test redundant internal optimization
|  2> #
|  3> ! RKS B3LYP  Opt TightSCF SmallPrint
|  4>
|  5> %basis
|  6>         Basis "6-31G"
|  7> end
|  8>
|  9> %geom
| 10> Constraints
| 11> { D 4  0  15  12  225.0   C } # D for Dihedral angle
| 12> { D 0  15  12  16  225.0   C } # D for Dihedral angle
| 13> { D 0  4  3  2   C } # D for Dihedral angle
| 14> { D 4  3  2  1   C } # D for Dihedral angle
| 15> { D 3  2  1  0   C } # D for Dihedral angle
| 16> { D 2  1  0  4   C } # D for Dihedral angle
| 17> { D 1  0  4  3   C } # D for Dihedral angle
| 18> { D 16  20  19  18   C } # D for Dihedral angle
| 19> { D 20  19  18  17   C } # D for Dihedral angle
| 20> { D 19  18  17  16   C } # D for Dihedral angle
| 21> { D 18  17  16  20   C } # D for Dihedral angle
| 22> { D 17  16  20  19   C } # D for Dihedral angle
| 23> { D 15  12  16  20   C } # D for Dihedral angle
| 24> end
| 25> end
| 26>
| 27>
| 28> #%pal
| 29> #nprocs 8
| 30> #end
| 31>
| 32> * xyz 0 1
| 33> C  -21.048   26.222   46.251
| 34> C  -20.361   27.558   45.944
| 35> C  -20.329   28.222   47.341
| 36> C  -20.110   27.022   48.296
| 37> O  -20.473   25.807   47.535
| 38> H  -20.833   25.428   45.533
| 39> H  -19.344   27.382   45.576
| 40> H  -20.898   28.157   45.201
| 41> H  -19.543   28.978   47.434
| 42> H  -21.289   28.710   47.548
| 43> H  -20.733   27.082   49.195
| 44> H  -19.064   26.913   48.597
| 45> C  -23.415   25.773   45.218
| 46> H  -22.748   25.541   44.378
| 47> H  -23.892   24.840   45.545
| 48> O  -22.586   26.394   46.375
| 49> C  -24.534   26.721   44.705
| 50> C  -25.404   26.034   43.646
| 51> C  -26.333   25.160   44.522
| 52> C  -26.551   26.034   45.783
| 53> O  -25.470   27.042   45.787
| 54> H  -24.085   27.662   44.380
| 55> O  -26.226   27.093   42.862
| 56> H  -24.823   25.447   42.927
| 57> H  -27.273   24.907   44.022
| 58> H  -25.830   24.222   44.785
| 59> H  -26.503   25.452   46.710
| 60> H  -27.500   26.578   45.755
| 61> H  -26.817   27.693   43.563
| 62> *
| 63>
| 64>                          ****END OF INPUT****
 Total Charge           Charge          ....    0
 Multiplicity           Mult            ....    1
 Number of Electrons    NEL             ....  102
FINAL SINGLE POINT ENERGY      -652.830584436017
FINAL SINGLE POINT ENERGY      -652.853099605861
FINAL SINGLE POINT ENERGY      -652.856643440938
FINAL SINGLE POINT ENERGY      -652.857273136675
FINAL SINGLE POINT ENERGY      -652.857350730697
FINAL SINGLE POINT ENERGY      -652.857359293814
                    ***********************HURRAY********************

CARTESIAN COORDINATES (ANGSTROEM)
---------------------------------
  C    -21.071591   26.181642   46.166406
  C    -20.471309   27.557657   45.883325
  C    -20.535316   28.227861   47.276925
  C    -20.268422   27.049696   48.237972
  O    -20.526060   25.818676   47.446135
  H    -20.797934   25.392126   45.459214
  H    -19.431506   27.442493   45.553294
  H    -21.024505   28.105836   45.116664
  H    -19.806117   29.035368   47.390534
  H    -21.537362   28.635187   47.439877
  H    -20.928120   27.047178   49.108783
  H    -19.226935   26.995979   48.569062
  C    -23.313856   25.676056   45.219715
  H    -22.689609   25.438970   44.344578
  H    -23.738644   24.738552   45.600986
  O    -22.518678   26.286693   46.268739
  C    -24.419338   26.639304   44.789779
  C    -25.353903   26.067705   43.713147
  C    -26.341867   25.227550   44.565927
  C    -26.475825   26.060501   45.865070
  O    -25.315402   26.982762   45.895612
  H    -23.962710   27.578367   44.461775
  O    -26.032175   27.136590   42.998474
  H    -24.844568   25.485981   42.943294
  H    -27.290725   25.097219   44.039983
  H    -25.921061   24.236324   44.768936
  H    -26.462077   25.442281   46.767520
  H    -27.379572   26.677620   45.877913
  H    -26.329811   27.811823   43.644361

 Multiplicity           Mult            ....    1
 Number of Electrons    NEL             ....  102
 Basis Dimension        Dim             ....  149

ORBITAL ENERGIES
----------------

  NO   OCC          E(Eh)            E(eV)
   0   2.0000     -19.141571      -520.8686
   1   2.0000     -19.140706      -520.8451
   2   2.0000     -19.137150      -520.7483
   3   2.0000     -19.136242      -520.7236
   4   2.0000     -10.278358      -279.6883
   5   2.0000     -10.245226      -278.7868
   6   2.0000     -10.235977      -278.5351
   7   2.0000     -10.235532      -278.5230
   8   2.0000     -10.230605      -278.3889
   9   2.0000     -10.220718      -278.1199
  10   2.0000     -10.191190      -277.3164
  11   2.0000     -10.182960      -277.0924
  12   2.0000     -10.181408      -277.0502
  13   2.0000      -1.050171       -28.5766
  14   2.0000      -1.037408       -28.2293
  15   2.0000      -1.007843       -27.4248
  16   2.0000      -0.991404       -26.9775
  17   2.0000      -0.788201       -21.4480
  18   2.0000      -0.781221       -21.2581
  19   2.0000      -0.768122       -20.9017
  20   2.0000      -0.729694       -19.8560
  21   2.0000      -0.674997       -18.3676
  22   2.0000      -0.606437       -16.5020
  23   2.0000      -0.595217       -16.1967
  24   2.0000      -0.594065       -16.1653
  25   2.0000      -0.584252       -15.8983
  26   2.0000      -0.525461       -14.2985
  27   2.0000      -0.512844       -13.9552
  28   2.0000      -0.496133       -13.5005
  29   2.0000      -0.487945       -13.2777
  30   2.0000      -0.473970       -12.8974
  31   2.0000      -0.458043       -12.4640
  32   2.0000      -0.452435       -12.3114
  33   2.0000      -0.439955       -11.9718
  34   2.0000      -0.429105       -11.6765
  35   2.0000      -0.408523       -11.1165
  36   2.0000      -0.397688       -10.8217
  37   2.0000      -0.394848       -10.7444
  38   2.0000      -0.374306       -10.1854
  39   2.0000      -0.370916       -10.0931
  40   2.0000      -0.361448        -9.8355
  41   2.0000      -0.354246        -9.6395
  42   2.0000      -0.349248        -9.5035
  43   2.0000      -0.331940        -9.0325
  44   2.0000      -0.311435        -8.4746
  45   2.0000      -0.310875        -8.4593
  46   2.0000      -0.301914        -8.2155
  47   2.0000      -0.273291        -7.4366
  48   2.0000      -0.261961        -7.1283
  49   2.0000      -0.254162        -6.9161
  50   2.0000      -0.236185        -6.4269
  51   0.0000       0.065246         1.7754
  52   0.0000       0.080059         2.1785
  53   0.0000       0.087427         2.3790
  54   0.0000       0.091837         2.4990
  55   0.0000       0.100133         2.7248

MULLIKEN ATOMIC CHARGES
-----------------------
   0 C :    0.280946
   1 C :   -0.253971
   2 C :   -0.300617
   3 C :   -0.000563
   4 O :   -0.501727
   5 H :    0.136087
   6 H :    0.140541
   7 H :    0.142277
   8 H :    0.139614
   9 H :    0.169911
  10 H :    0.154940
  11 H :    0.139186
  12 C :    0.001743
  13 H :    0.122229
  14 H :    0.140972
  15 O :   -0.501908
  16 C :    0.072446
  17 C :    0.077311
  18 C :   -0.303210
  19 C :   -0.024693
  20 O :   -0.509098
  21 H :    0.157223
  22 O :   -0.602670
  23 H :    0.149801
  24 H :    0.163906
  25 H :    0.147449
  26 H :    0.151496
  27 H :    0.144515
  28 H :    0.365866
Sum of atomic charges:   -0.0000000

LOEWDIN ATOMIC CHARGES
----------------------
   0 C :    0.176932
   1 C :   -0.224508
   2 C :   -0.216755
   3 C :   -0.025300
   4 O :   -0.311245
   5 H :    0.095860
   6 H :    0.111199
   7 H :    0.115064
   8 H :    0.113339
   9 H :    0.123182
  10 H :    0.109757
  11 H :    0.100954
  12 C :   -0.037492
  13 H :    0.094675
  14 H :    0.101459
  15 O :   -0.324781
  16 C :    0.014227
  17 C :    0.034297
  18 C :   -0.242806
  19 C :   -0.036760
  20 O :   -0.320269
  21 H :    0.115063
  22 O :   -0.414321
  23 H :    0.114139
  24 H :    0.126995
  25 H :    0.113977
  26 H :    0.107211
  27 H :    0.101967
  28 H :    0.283940

  Mayer bond orders larger than 0.100000
B(  0-C ,  1-C ) :   0.9365 B(  0-C ,  4-O ) :   0.9373 B(  0-C ,  5-H ) :   0.9189
B(  0-C , 15-O ) :   0.8424 B(  1-C ,  2-C ) :   0.9568 B(  1-C ,  6-H ) :   0.9352
B(  1-C ,  7-H ) :   0.9385 B(  2-C ,  3-C ) :   0.9550 B(  2-C ,  8-H ) :   0.9451
B(  2-C ,  9-H ) :   0.9416 B(  3-C ,  4-O ) :   0.8357 B(  3-C , 10-H ) :   0.9344
B(  3-C , 11-H ) :   0.9399 B( 12-C , 13-H ) :   0.9119 B( 12-C , 14-H ) :   0.9231
B( 12-C , 15-O ) :   0.8488 B( 12-C , 16-C ) :   0.8956 B( 16-C , 17-C ) :   0.8956
B( 16-C , 20-O ) :   0.8691 B( 16-C , 21-H ) :   0.9256 B( 17-C , 18-C ) :   0.9125
B( 17-C , 22-O ) :   0.8920 B( 17-C , 23-H ) :   0.9334 B( 18-C , 19-C ) :   0.9392
B( 18-C , 24-H ) :   0.9373 B( 18-C , 25-H ) :   0.9326 B( 19-C , 20-O ) :   0.8500
B( 19-C , 26-H ) :   0.9341 B( 19-C , 27-H ) :   0.9380 B( 22-O , 28-H ) :   0.7934

FINAL SINGLE POINT ENERGY      -652.857361265721

DIPOLE MOMENT
-------------
                                X             Y             Z
Electronic contribution:     -1.25137      -0.57762      -0.08940
Nuclear contribution   :      1.34175       0.53049      -0.25743
                        -----------------------------------------
Total Dipole Moment    :      0.09037      -0.04713      -0.34683
                        -----------------------------------------
Magnitude (a.u.)       :      0.36150
Magnitude (Debye)      :      0.91886

Rotational constants in cm-1:     0.063382     0.011341     0.011011
Rotational constants in MHz :  1900.142388   339.984978   330.109644

                             ****ORCA TERMINATED NORMALLY****
TOTAL RUN TIME: 0 days 0 hours 19 minutes 34 seconds 502 msec
