                         Program Version 4.2.0 -  RELEASE  -
|  1> # Test redundant internal optimization
|  2> #
|  3> ! RKS B3LYP  Opt TightSCF SmallPrint
|  4>
|  5> %basis
|  6>         Basis "6-31G"
|  7> end
|  8>
|  9> %geom
| 10> Constraints
| 11> { D 4  0  15  12  135.0   C } # D for Dihedral angle
| 12> { D 0  15  12  16  105.0   C } # D for Dihedral angle
| 13> { D 0  4  3  2   C } # D for Dihedral angle
| 14> { D 4  3  2  1   C } # D for Dihedral angle
| 15> { D 3  2  1  0   C } # D for Dihedral angle
| 16> { D 2  1  0  4   C } # D for Dihedral angle
| 17> { D 1  0  4  3   C } # D for Dihedral angle
| 18> { D 16  20  19  18   C } # D for Dihedral angle
| 19> { D 20  19  18  17   C } # D for Dihedral angle
| 20> { D 19  18  17  16   C } # D for Dihedral angle
| 21> { D 18  17  16  20   C } # D for Dihedral angle
| 22> { D 17  16  20  19   C } # D for Dihedral angle
| 23> { D 15  12  16  20   C } # D for Dihedral angle
| 24> end
| 25> end
| 26>
| 27>
| 28> #%pal
| 29> #nprocs 8
| 30> #end
| 31>
| 32> * xyz 0 1
| 33> C  -21.048   26.222   46.251
| 34> C  -20.361   27.558   45.944
| 35> C  -20.329   28.222   47.341
| 36> C  -20.110   27.022   48.296
| 37> O  -20.473   25.807   47.535
| 38> H  -20.833   25.428   45.533
| 39> H  -19.344   27.382   45.576
| 40> H  -20.898   28.157   45.201
| 41> H  -19.543   28.978   47.434
| 42> H  -21.289   28.710   47.548
| 43> H  -20.733   27.082   49.195
| 44> H  -19.064   26.913   48.597
| 45> C  -23.162   27.680   45.721
| 46> H  -23.872   28.151   46.411
| 47> H  -22.358   28.398   45.513
| 48> O  -22.586   26.394   46.375
| 49> C  -23.898   27.394   44.382
| 50> C  -22.990   26.652   43.394
| 51> C  -23.070   25.201   43.925
| 52> C  -24.529   25.092   44.435
| 53> O  -25.021   26.477   44.601
| 54> H  -24.317   28.326   43.999
| 55> H  -23.405   26.717   42.382
| 56> O  -21.539   27.204   43.366
| 57> H  -22.838   24.455   43.159
| 58> H  -22.361   25.063   44.751
| 59> H  -24.601   24.567   45.393
| 60> H  -25.187   24.601   43.712
| 61> H  -21.104   27.150   44.370
| 62> *
| 63>
| 64>                          ****END OF INPUT****
 Total Charge           Charge          ....    0
 Multiplicity           Mult            ....    1
 Number of Electrons    NEL             ....  102
FINAL SINGLE POINT ENERGY      -652.789400962460
FINAL SINGLE POINT ENERGY      -652.829482468357
FINAL SINGLE POINT ENERGY      -652.843851546292
FINAL SINGLE POINT ENERGY      -652.846875690980
FINAL SINGLE POINT ENERGY      -652.847838865474
FINAL SINGLE POINT ENERGY      -652.848194454540
FINAL SINGLE POINT ENERGY      -652.848375713938
FINAL SINGLE POINT ENERGY      -652.848456481335
FINAL SINGLE POINT ENERGY      -652.848525077594
FINAL SINGLE POINT ENERGY      -652.848675982579
FINAL SINGLE POINT ENERGY      -652.849016531824
FINAL SINGLE POINT ENERGY      -652.849041841243
FINAL SINGLE POINT ENERGY      -652.849503985782
FINAL SINGLE POINT ENERGY      -652.850086577559
FINAL SINGLE POINT ENERGY      -652.850706368782
FINAL SINGLE POINT ENERGY      -652.851258089875
FINAL SINGLE POINT ENERGY      -652.851630008965
FINAL SINGLE POINT ENERGY      -652.851767405285
FINAL SINGLE POINT ENERGY      -652.851773082232
                    ***********************HURRAY********************

CARTESIAN COORDINATES (ANGSTROEM)
---------------------------------
  C    -21.068368   26.288019   46.466881
  C    -20.179781   27.477878   46.100479
  C    -20.169078   28.291523   47.420541
  C    -20.201193   27.184951   48.499166
  O    -20.670029   25.959863   47.811746
  H    -20.890386   25.389425   45.873969
  H    -19.176536   27.089233   45.889110
  H    -20.514453   28.029107   45.222537
  H    -19.285760   28.931715   47.508111
  H    -21.056432   28.930158   47.488293
  H    -20.882189   27.409064   49.324774
  H    -19.208691   26.960876   48.902062
  C    -23.152755   27.649990   45.811362
  H    -23.906933   28.007266   46.520288
  H    -22.452851   28.466246   45.607152
  O    -22.510083   26.530398   46.481126
  C    -23.899282   27.305857   44.516762
  C    -23.091441   26.696248   43.362216
  C    -23.090719   25.183791   43.733132
  C    -24.485696   24.996188   44.374889
  O    -24.967274   26.344871   44.741163
  H    -24.387792   28.235398   44.196712
  H    -23.637289   26.855532   42.422271
  O    -21.780551   27.314226   43.289755
  H    -22.944045   24.536214   42.861800
  H    -22.297269   24.994351   44.455262
  H    -24.446209   24.379602   45.276554
  H    -25.214905   24.572701   43.676388
  H    -21.295012   26.992309   42.505501

 Multiplicity           Mult            ....    1
 Number of Electrons    NEL             ....  102
 Basis Dimension        Dim             ....  149

ORBITAL ENERGIES
----------------

  NO   OCC          E(Eh)            E(eV)
   0   2.0000     -19.157218      -521.2944
   1   2.0000     -19.130997      -520.5809
   2   2.0000     -19.129875      -520.5504
   3   2.0000     -19.129252      -520.5334
   4   2.0000     -10.271285      -279.4959
   5   2.0000     -10.247304      -278.8433
   6   2.0000     -10.230379      -278.3828
   7   2.0000     -10.221859      -278.1509
   8   2.0000     -10.221370      -278.1376
   9   2.0000     -10.218342      -278.0552
  10   2.0000     -10.184641      -277.1382
  11   2.0000     -10.183265      -277.1007
  12   2.0000     -10.177920      -276.9553
  13   2.0000      -1.041982       -28.3538
  14   2.0000      -1.035184       -28.1688
  15   2.0000      -1.015078       -27.6217
  16   2.0000      -0.980604       -26.6836
  17   2.0000      -0.779386       -21.2082
  18   2.0000      -0.777434       -21.1551
  19   2.0000      -0.764666       -20.8076
  20   2.0000      -0.727197       -19.7880
  21   2.0000      -0.676084       -18.3972
  22   2.0000      -0.604691       -16.4545
  23   2.0000      -0.595818       -16.2130
  24   2.0000      -0.591497       -16.0954
  25   2.0000      -0.552127       -15.0241
  26   2.0000      -0.531113       -14.4523
  27   2.0000      -0.510462       -13.8904
  28   2.0000      -0.497696       -13.5430
  29   2.0000      -0.489530       -13.3208
  30   2.0000      -0.458567       -12.4782
  31   2.0000      -0.451871       -12.2960
  32   2.0000      -0.443004       -12.0547
  33   2.0000      -0.431586       -11.7440
  34   2.0000      -0.423807       -11.5324
  35   2.0000      -0.410432       -11.1684
  36   2.0000      -0.402216       -10.9448
  37   2.0000      -0.390865       -10.6360
  38   2.0000      -0.372662       -10.1407
  39   2.0000      -0.366714        -9.9788
  40   2.0000      -0.359778        -9.7901
  41   2.0000      -0.353574        -9.6212
  42   2.0000      -0.342457        -9.3187
  43   2.0000      -0.333292        -9.0693
  44   2.0000      -0.305157        -8.3037
  45   2.0000      -0.299341        -8.1455
  46   2.0000      -0.281874        -7.6702
  47   2.0000      -0.278659        -7.5827
  48   2.0000      -0.261404        -7.1132
  49   2.0000      -0.248027        -6.7492
  50   2.0000      -0.228354        -6.2138
  51   0.0000       0.047105         1.2818
  52   0.0000       0.080623         2.1939
  53   0.0000       0.094289         2.5657
  54   0.0000       0.100635         2.7384
  55   0.0000       0.116271         3.1639

MULLIKEN ATOMIC CHARGES
-----------------------
   0 C :    0.327975
   1 C :   -0.311318
   2 C :   -0.304245
   3 C :   -0.000421
   4 O :   -0.503216
   5 H :    0.141419
   6 H :    0.142323
   7 H :    0.184831
   8 H :    0.139910
   9 H :    0.149694
  10 H :    0.148555
  11 H :    0.139187
  12 C :    0.004978
  13 H :    0.161235
  14 H :    0.134734
  15 O :   -0.533029
  16 C :    0.095549
  17 C :    0.086181
  18 C :   -0.317850
  19 C :   -0.002250
  20 O :   -0.518133
  21 H :    0.141135
  22 H :    0.138106
  23 O :   -0.616166
  24 H :    0.130869
  25 H :    0.174095
  26 H :    0.162475
  27 H :    0.137790
  28 H :    0.365586
Sum of atomic charges:   -0.0000000

LOEWDIN ATOMIC CHARGES
----------------------
   0 C :    0.185411
   1 C :   -0.237481
   2 C :   -0.220382
   3 C :   -0.028290
   4 O :   -0.312157
   5 H :    0.093514
   6 H :    0.116468
   7 H :    0.130506
   8 H :    0.113337
   9 H :    0.109618
  10 H :    0.105755
  11 H :    0.100971
  12 C :   -0.036819
  13 H :    0.117261
  14 H :    0.103206
  15 O :   -0.335048
  16 C :    0.025406
  17 C :    0.034172
  18 C :   -0.243667
  19 C :   -0.023484
  20 O :   -0.319301
  21 H :    0.110943
  22 H :    0.097628
  23 O :   -0.419380
  24 H :    0.107919
  25 H :    0.124854
  26 H :    0.113274
  27 H :    0.098543
  28 H :    0.287223

  Mayer bond orders larger than 0.100000
B(  0-C ,  1-C ) :   0.9375 B(  0-C ,  4-O ) :   0.9127 B(  0-C ,  5-H ) :   0.9168
B(  0-C , 15-O ) :   0.8466 B(  1-C ,  2-C ) :   0.9461 B(  1-C ,  6-H ) :   0.9358
B(  1-C ,  7-H ) :   0.9084 B(  2-C ,  3-C ) :   0.9502 B(  2-C ,  8-H ) :   0.9464
B(  2-C ,  9-H ) :   0.9443 B(  3-C ,  4-O ) :   0.8439 B(  3-C , 10-H ) :   0.9349
B(  3-C , 11-H ) :   0.9401 B( 12-C , 13-H ) :   0.9299 B( 12-C , 14-H ) :   0.8984
B( 12-C , 15-O ) :   0.8701 B( 12-C , 16-C ) :   0.8991 B( 16-C , 17-C ) :   0.9247
B( 16-C , 20-O ) :   0.8818 B( 16-C , 21-H ) :   0.9226 B( 17-C , 18-C ) :   0.9256
B( 17-C , 22-H ) :   0.9249 B( 17-C , 23-O ) :   0.8656 B( 18-C , 19-C ) :   0.9486
B( 18-C , 24-H ) :   0.9422 B( 18-C , 25-H ) :   0.9207 B( 19-C , 20-O ) :   0.8408
B( 19-C , 26-H ) :   0.9298 B( 19-C , 27-H ) :   0.9360 B( 23-O , 28-H ) :   0.8004

FINAL SINGLE POINT ENERGY      -652.851775896898

DIPOLE MOMENT
-------------
                                X             Y             Z
Electronic contribution:     -3.14047      -1.76680      -0.03122
Nuclear contribution   :      4.07385       2.29066      -1.39613
                        -----------------------------------------
Total Dipole Moment    :      0.93338       0.52385      -1.42735
                        -----------------------------------------
Magnitude (a.u.)       :      1.78408
Magnitude (Debye)      :      4.53477

Rotational constants in cm-1:     0.050682     0.016403     0.015240
Rotational constants in MHz :  1519.421743   491.749292   456.892617

                             ****ORCA TERMINATED NORMALLY****
TOTAL RUN TIME: 0 days 1 hours 34 minutes 1 seconds 148 msec
