                         Program Version 4.2.0 -  RELEASE  -
|  1> # Test redundant internal optimization
|  2> #
|  3> ! RKS B3LYP  Opt TightSCF SmallPrint
|  4>
|  5> %basis
|  6>         Basis "6-31G"
|  7> end
|  8>
|  9> %geom
| 10> Constraints
| 11> { D 4  0  15  12  240.0   C } # D for Dihedral angle
| 12> { D 0  15  12  16  180.0   C } # D for Dihedral angle
| 13> { D 0  4  3  2   C } # D for Dihedral angle
| 14> { D 4  3  2  1   C } # D for Dihedral angle
| 15> { D 3  2  1  0   C } # D for Dihedral angle
| 16> { D 2  1  0  4   C } # D for Dihedral angle
| 17> { D 1  0  4  3   C } # D for Dihedral angle
| 18> { D 16  20  19  18   C } # D for Dihedral angle
| 19> { D 20  19  18  17   C } # D for Dihedral angle
| 20> { D 19  18  17  16   C } # D for Dihedral angle
| 21> { D 18  17  16  20   C } # D for Dihedral angle
| 22> { D 17  16  20  19   C } # D for Dihedral angle
| 23> { D 15  12  16  20   C } # D for Dihedral angle
| 24> end
| 25> end
| 26>
| 27>
| 28> #%pal
| 29> #nprocs 8
| 30> #end
| 31>
| 32> * xyz 0 1
| 33> C  -21.048   26.222   46.251
| 34> C  -20.361   27.558   45.944
| 35> C  -20.329   28.222   47.341
| 36> C  -20.110   27.022   48.296
| 37> O  -20.473   25.807   47.535
| 38> H  -20.833   25.428   45.533
| 39> H  -19.344   27.382   45.576
| 40> H  -20.898   28.157   45.201
| 41> H  -19.543   28.978   47.434
| 42> H  -21.289   28.710   47.548
| 43> H  -20.733   27.082   49.195
| 44> H  -19.064   26.913   48.597
| 45> C  -23.430   25.483   45.442
| 46> H  -23.166   25.691   44.398
| 47> H  -23.219   24.425   45.645
| 48> O  -22.586   26.394   46.375
| 49> C  -24.959   25.701   45.612
| 50> C  -25.389   25.515   47.072
| 51> C  -24.971   26.868   47.696
| 52> C  -25.231   27.879   46.552
| 53> O  -25.316   27.089   45.304
| 54> H  -25.492   25.068   44.901
| 55> H  -26.475   25.382   47.130
| 56> O  -24.709   24.300   47.759
| 57> H  -25.534   27.110   48.603
| 58> H  -23.906   26.848   47.959
| 59> H  -24.430   28.619   46.455
| 60> H  -26.185   28.403   46.666
| 61> H  -23.620   24.412   47.713
| 62> *
| 63>
| 64>                          ****END OF INPUT****
 Total Charge           Charge          ....    0
 Multiplicity           Mult            ....    1
 Number of Electrons    NEL             ....  102
FINAL SINGLE POINT ENERGY      -652.835489418027
FINAL SINGLE POINT ENERGY      -652.858738884027
FINAL SINGLE POINT ENERGY      -652.863057847617
FINAL SINGLE POINT ENERGY      -652.864422715158
FINAL SINGLE POINT ENERGY      -652.864566664016
FINAL SINGLE POINT ENERGY      -652.864587435570
                    ***********************HURRAY********************

CARTESIAN COORDINATES (ANGSTROEM)
---------------------------------
  C    -21.063311   26.177378   46.190913
  C    -20.404461   27.526469   45.905154
  C    -20.418895   28.189614   47.302291
  C    -20.192860   26.996282   48.256660
  O    -20.516330   25.779808   47.465487
  H    -20.830870   25.379853   45.479684
  H    -19.376785   27.363395   45.559958
  H    -20.946337   28.099351   45.149360
  H    -19.650432   28.960761   47.410879
  H    -21.395573   28.649774   47.481351
  H    -20.836284   27.022418   49.139758
  H    -19.150492   26.895236   48.572373
  C    -23.308118   25.492396   45.430692
  H    -23.057860   25.693587   44.380054
  H    -23.110749   24.432637   45.646194
  O    -22.500898   26.345990   46.296161
  C    -24.791763   25.767918   45.638279
  C    -25.300388   25.525772   47.070799
  C    -24.980521   26.888180   47.760228
  C    -25.219781   27.905905   46.624449
  O    -25.192802   27.138177   45.351799
  H    -25.328301   25.137432   44.919005
  H    -26.374253   25.328319   47.057664
  O    -24.709923   24.376339   47.723248
  H    -25.620946   27.066593   48.628969
  H    -23.934491   26.888265   48.071620
  H    -24.447482   28.679678   46.581045
  H    -26.203717   28.380974   46.685008
  H    -23.778376   24.579499   47.953919

 Multiplicity           Mult            ....    1
 Number of Electrons    NEL             ....  102
 Basis Dimension        Dim             ....  149

ORBITAL ENERGIES
----------------

  NO   OCC          E(Eh)            E(eV)
   0   2.0000     -19.150897      -521.1224
   1   2.0000     -19.146281      -520.9968
   2   2.0000     -19.134986      -520.6894
   3   2.0000     -19.133002      -520.6354
   4   2.0000     -10.286007      -279.8965
   5   2.0000     -10.234108      -278.4842
   6   2.0000     -10.233916      -278.4790
   7   2.0000     -10.231036      -278.4006
   8   2.0000     -10.230516      -278.3865
   9   2.0000     -10.220856      -278.1236
  10   2.0000     -10.191299      -277.3193
  11   2.0000     -10.190093      -277.2865
  12   2.0000     -10.176902      -276.9276
  13   2.0000      -1.059760       -28.8375
  14   2.0000      -1.025080       -27.8938
  15   2.0000      -1.006777       -27.3958
  16   2.0000      -0.999286       -27.1920
  17   2.0000      -0.792483       -21.5645
  18   2.0000      -0.772546       -21.0220
  19   2.0000      -0.764577       -20.8052
  20   2.0000      -0.734193       -19.9784
  21   2.0000      -0.677516       -18.4362
  22   2.0000      -0.604339       -16.4449
  23   2.0000      -0.600925       -16.3520
  24   2.0000      -0.595813       -16.2129
  25   2.0000      -0.575047       -15.6478
  26   2.0000      -0.528280       -14.3752
  27   2.0000      -0.506731       -13.7888
  28   2.0000      -0.499370       -13.5885
  29   2.0000      -0.487249       -13.2587
  30   2.0000      -0.474793       -12.9198
  31   2.0000      -0.460660       -12.5352
  32   2.0000      -0.440904       -11.9976
  33   2.0000      -0.434179       -11.8146
  34   2.0000      -0.421988       -11.4829
  35   2.0000      -0.413608       -11.2549
  36   2.0000      -0.402107       -10.9419
  37   2.0000      -0.399372       -10.8675
  38   2.0000      -0.377146       -10.2627
  39   2.0000      -0.371991       -10.1224
  40   2.0000      -0.361852        -9.8465
  41   2.0000      -0.354807        -9.6548
  42   2.0000      -0.349150        -9.5008
  43   2.0000      -0.326486        -8.8841
  44   2.0000      -0.321022        -8.7355
  45   2.0000      -0.312101        -8.4927
  46   2.0000      -0.304352        -8.2818
  47   2.0000      -0.273665        -7.4468
  48   2.0000      -0.260552        -7.0900
  49   2.0000      -0.253973        -6.9110
  50   2.0000      -0.238662        -6.4943
  51   0.0000       0.063941         1.7399
  52   0.0000       0.080962         2.2031
  53   0.0000       0.086505         2.3539
  54   0.0000       0.096094         2.6148
  55   0.0000       0.104869         2.8536

MULLIKEN ATOMIC CHARGES
-----------------------
   0 C :    0.285182
   1 C :   -0.251738
   2 C :   -0.304308
   3 C :   -0.003954
   4 O :   -0.507120
   5 H :    0.145881
   6 H :    0.145655
   7 H :    0.155823
   8 H :    0.145436
   9 H :    0.160396
  10 H :    0.147972
  11 H :    0.145454
  12 C :   -0.024103
  13 H :    0.145424
  14 H :    0.146661
  15 O :   -0.532456
  16 C :    0.083594
  17 C :    0.086237
  18 C :   -0.310616
  19 C :   -0.003299
  20 O :   -0.520990
  21 H :    0.152642
  22 H :    0.161762
  23 O :   -0.609090
  24 H :    0.141469
  25 H :    0.166520
  26 H :    0.143139
  27 H :    0.139626
  28 H :    0.368799
Sum of atomic charges:   -0.0000000

LOEWDIN ATOMIC CHARGES
----------------------
   0 C :    0.175702
   1 C :   -0.219559
   2 C :   -0.216693
   3 C :   -0.027692
   4 O :   -0.320661
   5 H :    0.102041
   6 H :    0.114303
   7 H :    0.123319
   8 H :    0.115987
   9 H :    0.117039
  10 H :    0.105441
  11 H :    0.104365
  12 C :   -0.048499
  13 H :    0.102905
  14 H :    0.103960
  15 O :   -0.340453
  16 C :    0.018563
  17 C :    0.038190
  18 C :   -0.242957
  19 C :   -0.025165
  20 O :   -0.323542
  21 H :    0.115907
  22 H :    0.115683
  23 O :   -0.412441
  24 H :    0.114023
  25 H :    0.122026
  26 H :    0.102679
  27 H :    0.100315
  28 H :    0.285212

  Mayer bond orders larger than 0.100000
B(  0-C ,  1-C ) :   0.9424 B(  0-C ,  4-O ) :   0.9273 B(  0-C ,  5-H ) :   0.9187
B(  0-C , 15-O ) :   0.8345 B(  1-C ,  2-C ) :   0.9555 B(  1-C ,  6-H ) :   0.9362
B(  1-C ,  7-H ) :   0.9365 B(  2-C ,  3-C ) :   0.9542 B(  2-C ,  8-H ) :   0.9448
B(  2-C ,  9-H ) :   0.9434 B(  3-C ,  4-O ) :   0.8361 B(  3-C , 10-H ) :   0.9349
B(  3-C , 11-H ) :   0.9394 B( 12-C , 13-H ) :   0.9218 B( 12-C , 14-H ) :   0.9007
B( 12-C , 15-O ) :   0.8251 B( 12-C , 16-C ) :   0.9191 B( 16-C , 17-C ) :   0.8872
B( 16-C , 20-O ) :   0.8830 B( 16-C , 21-H ) :   0.9273 B( 17-C , 18-C ) :   0.9326
B( 17-C , 22-H ) :   0.9363 B( 17-C , 23-O ) :   0.9037 B( 18-C , 19-C ) :   0.9470
B( 18-C , 24-H ) :   0.9414 B( 18-C , 25-H ) :   0.9258 B( 19-C , 20-O ) :   0.8370
B( 19-C , 26-H ) :   0.9323 B( 19-C , 27-H ) :   0.9380 B( 23-O , 28-H ) :   0.7875

FINAL SINGLE POINT ENERGY      -652.864587778708

DIPOLE MOMENT
-------------
                                X             Y             Z
Electronic contribution:     -2.43882      -4.15857      -1.37002
Nuclear contribution   :      3.28858       5.00153       1.37010
                        -----------------------------------------
Total Dipole Moment    :      0.84976       0.84296       0.00008
                        -----------------------------------------
Magnitude (a.u.)       :      1.19694
Magnitude (Debye)      :      3.04238

Rotational constants in cm-1:     0.043951     0.016492     0.015596
Rotational constants in MHz :  1317.610433   494.419659   467.555156

                             ****ORCA TERMINATED NORMALLY****
TOTAL RUN TIME: 0 days 0 hours 37 minutes 41 seconds 332 msec
