                         Program Version 4.2.0 -  RELEASE  -
|  1> # Test redundant internal optimization
|  2> #
|  3> ! RKS B3LYP  Opt TightSCF SmallPrint
|  4>
|  5> %basis
|  6>         Basis "6-31G"
|  7> end
|  8>
|  9> %geom
| 10> Constraints
| 11> { D 4  0  15  12  240.0   C } # D for Dihedral angle
| 12> { D 0  15  12  16  135.0   C } # D for Dihedral angle
| 13> { D 0  4  3  2   C } # D for Dihedral angle
| 14> { D 4  3  2  1   C } # D for Dihedral angle
| 15> { D 3  2  1  0   C } # D for Dihedral angle
| 16> { D 2  1  0  4   C } # D for Dihedral angle
| 17> { D 1  0  4  3   C } # D for Dihedral angle
| 18> { D 16  20  19  18   C } # D for Dihedral angle
| 19> { D 20  19  18  17   C } # D for Dihedral angle
| 20> { D 19  18  17  16   C } # D for Dihedral angle
| 21> { D 18  17  16  20   C } # D for Dihedral angle
| 22> { D 17  16  20  19   C } # D for Dihedral angle
| 23> { D 15  12  16  20   C } # D for Dihedral angle
| 24> end
| 25> end
| 26>
| 27>
| 28> #%pal
| 29> #nprocs 8
| 30> #end
| 31>
| 32> * xyz 0 1
| 33> C  -21.048   26.222   46.251
| 34> C  -20.361   27.558   45.944
| 35> C  -20.329   28.222   47.341
| 36> C  -20.110   27.022   48.296
| 37> O  -20.473   25.807   47.535
| 38> H  -20.833   25.428   45.533
| 39> H  -19.344   27.382   45.576
| 40> H  -20.898   28.157   45.201
| 41> H  -19.543   28.978   47.434
| 42> H  -21.289   28.710   47.548
| 43> H  -20.733   27.082   49.195
| 44> H  -19.064   26.913   48.597
| 45> C  -23.430   25.483   45.442
| 46> H  -23.822   26.081   44.610
| 47> H  -22.808   24.680   45.024
| 48> O  -22.586   26.394   46.375
| 49> C  -24.629   24.819   46.175
| 50> C  -25.369   23.839   45.257
| 51> C  -24.447   22.598   45.315
| 52> C  -23.922   22.618   46.773
| 53> O  -24.153   23.985   47.284
| 54> H  -25.260   25.598   46.607
| 55> O  -26.768   23.511   45.846
| 56> H  -25.503   24.222   44.239
| 57> H  -24.971   21.668   45.073
| 58> H  -23.619   22.710   44.605
| 59> H  -22.853   22.387   46.836
| 60> H  -24.472   21.932   47.424
| 61> H  -26.658   23.126   46.865
| 62> *
| 63>
| 64>                          ****END OF INPUT****
 Total Charge           Charge          ....    0
 Multiplicity           Mult            ....    1
 Number of Electrons    NEL             ....  102
FINAL SINGLE POINT ENERGY      -652.831231437837
FINAL SINGLE POINT ENERGY      -652.853969055653
FINAL SINGLE POINT ENERGY      -652.857861900371
FINAL SINGLE POINT ENERGY      -652.858554096980
FINAL SINGLE POINT ENERGY      -652.858645463270
FINAL SINGLE POINT ENERGY      -652.858658513822
FINAL SINGLE POINT ENERGY      -652.858660400971
                    ***********************HURRAY********************

CARTESIAN COORDINATES (ANGSTROEM)
---------------------------------
  C    -21.036208   26.178453   46.172167
  C    -20.452237   27.573608   45.953728
  C    -20.521219   28.176604   47.377800
  C    -20.238572   26.955950   48.281296
  O    -20.483036   25.761870   47.434035
  H    -20.751270   25.423621   45.432236
  H    -19.411455   27.486258   45.618916
  H    -21.015097   28.147490   45.214018
  H    -19.800659   28.985718   47.528997
  H    -21.526895   28.566059   47.562023
  H    -20.895325   26.904934   49.152800
  H    -19.195508   26.900893   48.607756
  C    -23.279686   25.454677   45.368868
  H    -23.697185   26.076797   44.563521
  H    -22.652416   24.675921   44.910741
  O    -22.479714   26.279620   46.249458
  C    -24.424134   24.824827   46.162824
  C    -25.314871   23.889225   45.332676
  C    -24.502561   22.567868   45.365921
  C    -23.871871   22.581351   46.780881
  O    -23.944323   23.983089   47.259095
  H    -25.009384   25.625351   46.624835
  O    -26.622459   23.734555   45.948953
  H    -25.515437   24.246145   44.321200
  H    -25.157729   21.709941   45.195436
  H    -23.733680   22.572627   44.584738
  H    -22.826586   22.258906   46.784265
  H    -24.428591   21.966910   47.495219
  H    -26.506891   23.622730   46.916599

 Multiplicity           Mult            ....    1
 Number of Electrons    NEL             ....  102
 Basis Dimension        Dim             ....  149

ORBITAL ENERGIES
----------------

  NO   OCC          E(Eh)            E(eV)
   0   2.0000     -19.138446      -520.7836
   1   2.0000     -19.137812      -520.7664
   2   2.0000     -19.137693      -520.7631
   3   2.0000     -19.132867      -520.6318
   4   2.0000     -10.277364      -279.6613
   5   2.0000     -10.242574      -278.7146
   6   2.0000     -10.235385      -278.5190
   7   2.0000     -10.231650      -278.4173
   8   2.0000     -10.227701      -278.3099
   9   2.0000     -10.218880      -278.0699
  10   2.0000     -10.189605      -277.2732
  11   2.0000     -10.181747      -277.0594
  12   2.0000     -10.181075      -277.0411
  13   2.0000      -1.049109       -28.5477
  14   2.0000      -1.034107       -28.1395
  15   2.0000      -1.004844       -27.3432
  16   2.0000      -0.990795       -26.9609
  17   2.0000      -0.787255       -21.4223
  18   2.0000      -0.779551       -21.2127
  19   2.0000      -0.765719       -20.8363
  20   2.0000      -0.727730       -19.8025
  21   2.0000      -0.673388       -18.3238
  22   2.0000      -0.603147       -16.4125
  23   2.0000      -0.594284       -16.1713
  24   2.0000      -0.589943       -16.0532
  25   2.0000      -0.585622       -15.9356
  26   2.0000      -0.525269       -14.2933
  27   2.0000      -0.510343       -13.8871
  28   2.0000      -0.492000       -13.3880
  29   2.0000      -0.485053       -13.1990
  30   2.0000      -0.474417       -12.9096
  31   2.0000      -0.457434       -12.4474
  32   2.0000      -0.451854       -12.2956
  33   2.0000      -0.437308       -11.8998
  34   2.0000      -0.425650       -11.5825
  35   2.0000      -0.407184       -11.0800
  36   2.0000      -0.396757       -10.7963
  37   2.0000      -0.392724       -10.6866
  38   2.0000      -0.372876       -10.1465
  39   2.0000      -0.370422       -10.0797
  40   2.0000      -0.353299        -9.6137
  41   2.0000      -0.352837        -9.6012
  42   2.0000      -0.346956        -9.4411
  43   2.0000      -0.331709        -9.0263
  44   2.0000      -0.311552        -8.4778
  45   2.0000      -0.305470        -8.3123
  46   2.0000      -0.302792        -8.2394
  47   2.0000      -0.270419        -7.3585
  48   2.0000      -0.263300        -7.1648
  49   2.0000      -0.246540        -6.7087
  50   2.0000      -0.237438        -6.4610
  51   0.0000       0.065845         1.7917
  52   0.0000       0.082573         2.2469
  53   0.0000       0.087501         2.3810
  54   0.0000       0.100862         2.7446
  55   0.0000       0.109243         2.9727

MULLIKEN ATOMIC CHARGES
-----------------------
   0 C :    0.289322
   1 C :   -0.253753
   2 C :   -0.300113
   3 C :    0.000065
   4 O :   -0.497221
   5 H :    0.134705
   6 H :    0.140330
   7 H :    0.144073
   8 H :    0.138907
   9 H :    0.163546
  10 H :    0.155677
  11 H :    0.137890
  12 C :    0.001780
  13 H :    0.131396
  14 H :    0.121572
  15 O :   -0.510678
  16 C :    0.076592
  17 C :    0.073492
  18 C :   -0.296200
  19 C :   -0.031276
  20 O :   -0.504690
  21 H :    0.168957
  22 O :   -0.599775
  23 H :    0.147697
  24 H :    0.161829
  25 H :    0.140874
  26 H :    0.152414
  27 H :    0.147395
  28 H :    0.365194
Sum of atomic charges:    0.0000000

LOEWDIN ATOMIC CHARGES
----------------------
   0 C :    0.178594
   1 C :   -0.221984
   2 C :   -0.216527
   3 C :   -0.025969
   4 O :   -0.312267
   5 H :    0.095010
   6 H :    0.111119
   7 H :    0.117005
   8 H :    0.112653
   9 H :    0.119856
  10 H :    0.109991
  11 H :    0.100350
  12 C :   -0.036436
  13 H :    0.097253
  14 H :    0.092412
  15 O :   -0.323961
  16 C :    0.014469
  17 C :    0.033937
  18 C :   -0.242178
  19 C :   -0.038808
  20 O :   -0.316762
  21 H :    0.120644
  22 O :   -0.413365
  23 H :    0.113505
  24 H :    0.126525
  25 H :    0.110833
  26 H :    0.107466
  27 H :    0.102939
  28 H :    0.283695

  Mayer bond orders larger than 0.100000
B(  0-C ,  1-C ) :   0.9415 B(  0-C ,  4-O ) :   0.9352 B(  0-C ,  5-H ) :   0.9185
B(  0-C , 15-O ) :   0.8442 B(  1-C ,  2-C ) :   0.9585 B(  1-C ,  6-H ) :   0.9371
B(  1-C ,  7-H ) :   0.9390 B(  2-C ,  3-C ) :   0.9541 B(  2-C ,  8-H ) :   0.9455
B(  2-C ,  9-H ) :   0.9435 B(  3-C ,  4-O ) :   0.8388 B(  3-C , 10-H ) :   0.9340
B(  3-C , 11-H ) :   0.9399 B( 12-C , 13-H ) :   0.9172 B( 12-C , 14-H ) :   0.9166
B( 12-C , 15-O ) :   0.8551 B( 12-C , 16-C ) :   0.8927 B( 16-C , 17-C ) :   0.8972
B( 16-C , 20-O ) :   0.8725 B( 16-C , 21-H ) :   0.9243 B( 17-C , 18-C ) :   0.9104
B( 17-C , 22-O ) :   0.8955 B( 17-C , 23-H ) :   0.9331 B( 18-C , 19-C ) :   0.9401
B( 18-C , 24-H ) :   0.9379 B( 18-C , 25-H ) :   0.9345 B( 19-C , 20-O ) :   0.8515
B( 19-C , 26-H ) :   0.9332 B( 19-C , 27-H ) :   0.9373 B( 22-O , 28-H ) :   0.7936

FINAL SINGLE POINT ENERGY      -652.858660333744

DIPOLE MOMENT
-------------
                                X             Y             Z
Electronic contribution:     -3.10476      -1.52142       1.70681
Nuclear contribution   :      3.74519       1.65860      -2.48007
                        -----------------------------------------
Total Dipole Moment    :      0.64043       0.13718      -0.77326
                        -----------------------------------------
Magnitude (a.u.)       :      1.01336
Magnitude (Debye)      :      2.57577

Rotational constants in cm-1:     0.065407     0.011954     0.011379
Rotational constants in MHz :  1960.856037   358.357514   341.122353

                             ****ORCA TERMINATED NORMALLY****
TOTAL RUN TIME: 0 days 2 hours 33 minutes 51 seconds 543 msec
