                         Program Version 4.2.0 -  RELEASE  -
|  1> # Test redundant internal optimization
|  2> #
|  3> ! RKS B3LYP  Opt TightSCF SmallPrint
|  4>
|  5> %basis
|  6>         Basis "6-31G"
|  7> end
|  8>
|  9> %geom
| 10> Constraints
| 11> { D 4  0  15  12  45.0   C } # D for Dihedral angle
| 12> { D 0  15  12  16  180.0   C } # D for Dihedral angle
| 13> { D 0  4  3  2   C } # D for Dihedral angle
| 14> { D 4  3  2  1   C } # D for Dihedral angle
| 15> { D 3  2  1  0   C } # D for Dihedral angle
| 16> { D 2  1  0  4   C } # D for Dihedral angle
| 17> { D 1  0  4  3   C } # D for Dihedral angle
| 18> { D 16  20  19  18   C } # D for Dihedral angle
| 19> { D 20  19  18  17   C } # D for Dihedral angle
| 20> { D 19  18  17  16   C } # D for Dihedral angle
| 21> { D 18  17  16  20   C } # D for Dihedral angle
| 22> { D 17  16  20  19   C } # D for Dihedral angle
| 23> { D 15  12  16  20   C } # D for Dihedral angle
| 24> end
| 25> end
| 26>
| 27>
| 28> #%pal
| 29> #nprocs 8
| 30> #end
| 31>
| 32> * xyz 0 1
| 33> C  -21.048   26.222   46.251
| 34> C  -20.361   27.558   45.944
| 35> C  -20.329   28.222   47.341
| 36> C  -20.110   27.022   48.296
| 37> O  -20.473   25.807   47.535
| 38> H  -20.833   25.428   45.533
| 39> H  -19.344   27.382   45.576
| 40> H  -20.898   28.157   45.201
| 41> H  -19.543   28.978   47.434
| 42> H  -21.289   28.710   47.548
| 43> H  -20.733   27.082   49.195
| 44> H  -19.064   26.913   48.597
| 45> C  -23.065   27.161   47.638
| 46> H  -22.727   26.628   48.535
| 47> H  -22.637   28.172   47.658
| 48> O  -22.586   26.394   46.375
| 49> C  -24.611   27.301   47.705
| 50> C  -25.167   27.960   46.437
| 51> C  -25.163   26.775   45.441
| 52> C  -25.508   25.560   46.339
| 53> O  -25.244   25.979   47.733
| 54> H  -24.885   27.806   48.633
| 55> H  -26.189   28.312   46.614
| 56> O  -24.311   29.160   45.947
| 57> H  -25.878   26.905   44.623
| 58> H  -24.166   26.657   44.999
| 59> H  -24.899   24.680   46.107
| 60> H  -26.565   25.284   46.280
| 61> H  -23.283   28.829   45.764
| 62> *
| 63>
| 64>                          ****END OF INPUT****
 Total Charge           Charge          ....    0
 Multiplicity           Mult            ....    1
 Number of Electrons    NEL             ....  102
FINAL SINGLE POINT ENERGY      -652.816744903454
FINAL SINGLE POINT ENERGY      -652.843199124986
FINAL SINGLE POINT ENERGY      -652.855410901624
FINAL SINGLE POINT ENERGY      -652.857835337727
FINAL SINGLE POINT ENERGY      -652.858240689048
FINAL SINGLE POINT ENERGY      -652.858307429903
FINAL SINGLE POINT ENERGY      -652.858311529231
                    ***********************HURRAY********************

CARTESIAN COORDINATES (ANGSTROEM)
---------------------------------
  C    -21.142201   26.309832   46.450862
  C    -20.346947   27.540301   45.992389
  C    -20.054848   28.260469   47.341614
  C    -19.859078   27.075502   48.318886
  O    -20.466300   25.892229   47.655647
  H    -21.070288   25.474053   45.752791
  H    -19.416635   27.201302   45.524670
  H    -20.894815   28.158245   45.275776
  H    -19.162032   28.891501   47.288384
  H    -20.891014   28.899289   47.637347
  H    -20.344800   27.226570   49.286908
  H    -18.804105   26.837292   48.480393
  C    -23.136215   27.169274   47.739641
  H    -22.843562   26.640509   48.652672
  H    -22.785533   28.207292   47.793974
  O    -22.576085   26.472267   46.585994
  C    -24.659130   27.204485   47.644580
  C    -25.228951   27.920484   46.407628
  C    -25.227971   26.778039   45.345052
  C    -25.560927   25.531099   46.192946
  O    -25.284934   25.892529   47.607211
  H    -25.009759   27.682918   48.567576
  H    -26.242312   28.270612   46.613849
  O    -24.492369   29.105139   46.011686
  H    -25.957808   26.956154   44.549591
  H    -24.229072   26.696938   44.911124
  H    -24.946348   24.666801   45.928775
  H    -26.618585   25.255822   46.137995
  H    -23.656378   28.827053   45.583038

 Multiplicity           Mult            ....    1
 Number of Electrons    NEL             ....  102
 Basis Dimension        Dim             ....  149

ORBITAL ENERGIES
----------------

  NO   OCC          E(Eh)            E(eV)
   0   2.0000     -19.151481      -521.1383
   1   2.0000     -19.151062      -521.1269
   2   2.0000     -19.140974      -520.8524
   3   2.0000     -19.130480      -520.5668
   4   2.0000     -10.286043      -279.8975
   5   2.0000     -10.236481      -278.5488
   6   2.0000     -10.235470      -278.5213
   7   2.0000     -10.230117      -278.3756
   8   2.0000     -10.229247      -278.3520
   9   2.0000     -10.218277      -278.0535
  10   2.0000     -10.199618      -277.5457
  11   2.0000     -10.197957      -277.5005
  12   2.0000     -10.177968      -276.9566
  13   2.0000      -1.060092       -28.8466
  14   2.0000      -1.026818       -27.9411
  15   2.0000      -1.009135       -27.4600
  16   2.0000      -0.999100       -27.1869
  17   2.0000      -0.796027       -21.6610
  18   2.0000      -0.776332       -21.1251
  19   2.0000      -0.765459       -20.8292
  20   2.0000      -0.736696       -20.0465
  21   2.0000      -0.679594       -18.4927
  22   2.0000      -0.611379       -16.6365
  23   2.0000      -0.603536       -16.4231
  24   2.0000      -0.600061       -16.3285
  25   2.0000      -0.562914       -15.3177
  26   2.0000      -0.525235       -14.2924
  27   2.0000      -0.516319       -14.0497
  28   2.0000      -0.503037       -13.6883
  29   2.0000      -0.490492       -13.3470
  30   2.0000      -0.473595       -12.8872
  31   2.0000      -0.457380       -12.4459
  32   2.0000      -0.443400       -12.0655
  33   2.0000      -0.431550       -11.7431
  34   2.0000      -0.425509       -11.5787
  35   2.0000      -0.420230       -11.4351
  36   2.0000      -0.401837       -10.9346
  37   2.0000      -0.397556       -10.8180
  38   2.0000      -0.384855       -10.4724
  39   2.0000      -0.373451       -10.1621
  40   2.0000      -0.368777       -10.0349
  41   2.0000      -0.359919        -9.7939
  42   2.0000      -0.346573        -9.4307
  43   2.0000      -0.328316        -8.9339
  44   2.0000      -0.323607        -8.8058
  45   2.0000      -0.311949        -8.4886
  46   2.0000      -0.306687        -8.3454
  47   2.0000      -0.270497        -7.3606
  48   2.0000      -0.261992        -7.1292
  49   2.0000      -0.258102        -7.0233
  50   2.0000      -0.236716        -6.4414
  51   0.0000       0.046654         1.2695
  52   0.0000       0.078680         2.1410
  53   0.0000       0.090852         2.4722
  54   0.0000       0.097492         2.6529
  55   0.0000       0.098162         2.6711

MULLIKEN ATOMIC CHARGES
-----------------------
   0 C :    0.305595
   1 C :   -0.270500
   2 C :   -0.317956
   3 C :   -0.013327
   4 O :   -0.505077
   5 H :    0.165461
   6 H :    0.156762
   7 H :    0.141537
   8 H :    0.150105
   9 H :    0.155360
  10 H :    0.148177
  11 H :    0.152707
  12 C :   -0.022843
  13 H :    0.164305
  14 H :    0.130816
  15 O :   -0.538268
  16 C :    0.096615
  17 C :    0.083272
  18 C :   -0.314367
  19 C :    0.003714
  20 O :   -0.520748
  21 H :    0.145713
  22 H :    0.161520
  23 O :   -0.608568
  24 H :    0.142949
  25 H :    0.161007
  26 H :    0.149602
  27 H :    0.137701
  28 H :    0.358735
Sum of atomic charges:    0.0000000

LOEWDIN ATOMIC CHARGES
----------------------
   0 C :    0.176748
   1 C :   -0.227965
   2 C :   -0.223748
   3 C :   -0.032794
   4 O :   -0.315676
   5 H :    0.112767
   6 H :    0.121832
   7 H :    0.114036
   8 H :    0.118004
   9 H :    0.111348
  10 H :    0.104526
  11 H :    0.107727
  12 C :   -0.050935
  13 H :    0.115213
  14 H :    0.094227
  15 O :   -0.331427
  16 C :    0.022225
  17 C :    0.036857
  18 C :   -0.243125
  19 C :   -0.022676
  20 O :   -0.321050
  21 H :    0.112942
  22 H :    0.115896
  23 O :   -0.413193
  24 H :    0.114197
  25 H :    0.119912
  26 H :    0.107294
  27 H :    0.099642
  28 H :    0.277198

  Mayer bond orders larger than 0.100000
B(  0-C ,  1-C ) :   0.9161 B(  0-C ,  4-O ) :   0.9104 B(  0-C ,  5-H ) :   0.9362
B(  0-C , 15-O ) :   0.8731 B(  1-C ,  2-C ) :   0.9549 B(  1-C ,  6-H ) :   0.9339
B(  1-C ,  7-H ) :   0.9378 B(  2-C ,  3-C ) :   0.9478 B(  2-C ,  8-H ) :   0.9442
B(  2-C ,  9-H ) :   0.9382 B(  3-C ,  4-O ) :   0.8379 B(  3-C , 10-H ) :   0.9326
B(  3-C , 11-H ) :   0.9392 B( 12-C , 13-H ) :   0.9181 B( 12-C , 14-H ) :   0.8896
B( 12-C , 15-O ) :   0.8238 B( 12-C , 16-C ) :   0.9164 B( 16-C , 17-C ) :   0.8838
B( 16-C , 20-O ) :   0.8848 B( 16-C , 21-H ) :   0.9303 B( 17-C , 18-C ) :   0.9357
B( 17-C , 22-H ) :   0.9362 B( 17-C , 23-O ) :   0.8948 B( 18-C , 19-C ) :   0.9465
B( 18-C , 24-H ) :   0.9411 B( 18-C , 25-H ) :   0.9269 B( 19-C , 20-O ) :   0.8381
B( 19-C , 26-H ) :   0.9323 B( 19-C , 27-H ) :   0.9382 B( 23-O , 28-H ) :   0.7934

FINAL SINGLE POINT ENERGY      -652.858309491956

DIPOLE MOMENT
-------------
                                X             Y             Z
Electronic contribution:     -2.74871      -2.72245       1.24557
Nuclear contribution   :      3.71874       3.38597      -1.75995
                        -----------------------------------------
Total Dipole Moment    :      0.97003       0.66352      -0.51437
                        -----------------------------------------
Magnitude (a.u.)       :      1.28289
Magnitude (Debye)      :      3.26084

Rotational constants in cm-1:     0.049426     0.015935     0.014608
Rotational constants in MHz :  1481.751957   477.729748   437.946700

                             ****ORCA TERMINATED NORMALLY****
TOTAL RUN TIME: 0 days 0 hours 38 minutes 16 seconds 735 msec
