                         Program Version 4.2.0 -  RELEASE  -
|  1> # Test redundant internal optimization
|  2> #
|  3> ! RKS B3LYP  Opt TightSCF SmallPrint
|  4>
|  5> %basis
|  6>         Basis "6-31G"
|  7> end
|  8>
|  9> %geom
| 10> Constraints
| 11> { D 4  0  15  12  75.0   C } # D for Dihedral angle
| 12> { D 0  15  12  16  210.0   C } # D for Dihedral angle
| 13> { D 0  4  3  2   C } # D for Dihedral angle
| 14> { D 4  3  2  1   C } # D for Dihedral angle
| 15> { D 3  2  1  0   C } # D for Dihedral angle
| 16> { D 2  1  0  4   C } # D for Dihedral angle
| 17> { D 1  0  4  3   C } # D for Dihedral angle
| 18> { D 16  20  19  18   C } # D for Dihedral angle
| 19> { D 20  19  18  17   C } # D for Dihedral angle
| 20> { D 19  18  17  16   C } # D for Dihedral angle
| 21> { D 18  17  16  20   C } # D for Dihedral angle
| 22> { D 17  16  20  19   C } # D for Dihedral angle
| 23> { D 15  12  16  20   C } # D for Dihedral angle
| 24> end
| 25> end
| 26>
| 27>
| 28> #%pal
| 29> #nprocs 8
| 30> #end
| 31>
| 32> * xyz 0 1
| 33> C  -21.048   26.222   46.251
| 34> C  -20.361   27.558   45.944
| 35> C  -20.329   28.222   47.341
| 36> C  -20.110   27.022   48.296
| 37> O  -20.473   25.807   47.535
| 38> H  -20.833   25.428   45.533
| 39> H  -19.344   27.382   45.576
| 40> H  -20.898   28.157   45.201
| 41> H  -19.543   28.978   47.434
| 42> H  -21.289   28.710   47.548
| 43> H  -20.733   27.082   49.195
| 44> H  -19.064   26.913   48.597
| 45> C  -23.049   27.675   47.122
| 46> H  -22.290   27.957   47.862
| 47> H  -23.168   28.508   46.418
| 48> O  -22.586   26.394   46.375
| 49> C  -24.403   27.483   47.860
| 50> C  -24.886   28.795   48.488
| 51> C  -25.482   29.528   47.262
| 52> C  -26.090   28.376   46.425
| 53> O  -25.460   27.128   46.908
| 54> H  -24.313   26.652   48.563
| 55> H  -25.663   28.593   49.233
| 56> O  -23.747   29.598   49.174
| 57> H  -26.227   30.281   47.539
| 58> H  -24.686   30.034   46.703
| 59> H  -25.891   28.486   45.353
| 60> H  -27.168   28.273   46.577
| 61> H  -22.956   29.814   48.447
| 62> *
| 63>
| 64>                          ****END OF INPUT****
 Total Charge           Charge          ....    0
 Multiplicity           Mult            ....    1
 Number of Electrons    NEL             ....  102
FINAL SINGLE POINT ENERGY      -652.791885015827
FINAL SINGLE POINT ENERGY      -652.826217844721
FINAL SINGLE POINT ENERGY      -652.844764740011
FINAL SINGLE POINT ENERGY      -652.848300560844
FINAL SINGLE POINT ENERGY      -652.848898898367
FINAL SINGLE POINT ENERGY      -652.849091098429
FINAL SINGLE POINT ENERGY      -652.849127606377
FINAL SINGLE POINT ENERGY      -652.849135561887
FINAL SINGLE POINT ENERGY      -652.849126016121
FINAL SINGLE POINT ENERGY      -652.849123702207
                    ***********************HURRAY********************

CARTESIAN COORDINATES (ANGSTROEM)
---------------------------------
  C    -21.182874   26.342686   46.403398
  C    -20.213223   27.430307   45.916414
  C    -19.821499   28.137453   47.248545
  C    -19.805535   26.960701   48.259139
  O    -20.576366   25.862842   47.627455
  H    -21.213133   25.477518   45.739368
  H    -19.341303   26.944735   45.466981
  H    -20.661385   28.101547   45.178554
  H    -18.844813   28.627780   47.184876
  H    -20.553907   28.900794   47.521563
  H    -20.262765   27.211416   49.221243
  H    -18.794562   26.581384   48.434405
  C    -23.052309   27.863727   47.173391
  H    -22.404919   28.147221   48.010082
  H    -23.090154   28.692118   46.450663
  O    -22.581426   26.660740   46.509055
  C    -24.427924   27.552831   47.760729
  C    -25.082340   28.747121   48.474276
  C    -25.741177   29.508659   47.284892
  C    -26.182523   28.360186   46.350713
  O    -25.412448   27.160019   46.758313
  H    -24.312534   26.686336   48.417488
  H    -25.845399   28.382440   49.165564
  O    -24.189115   29.545125   49.293363
  H    -26.572017   30.142814   47.605562
  H    -24.991094   30.149806   46.801259
  H    -25.986290   28.571216   45.294403
  H    -27.243114   28.116310   46.468732
  H    -23.703848   30.190168   48.739572

 Multiplicity           Mult            ....    1
 Number of Electrons    NEL             ....  102
 Basis Dimension        Dim             ....  149

ORBITAL ENERGIES
----------------

  NO   OCC          E(Eh)            E(eV)
   0   2.0000     -19.152756      -521.1730
   1   2.0000     -19.140078      -520.8280
   2   2.0000     -19.138241      -520.7780
   3   2.0000     -19.134891      -520.6869
   4   2.0000     -10.274836      -279.5925
   5   2.0000     -10.246182      -278.8128
   6   2.0000     -10.231250      -278.4065
   7   2.0000     -10.230291      -278.3804
   8   2.0000     -10.228557      -278.3332
   9   2.0000     -10.227961      -278.3170
  10   2.0000     -10.198436      -277.5136
  11   2.0000     -10.194314      -277.4014
  12   2.0000     -10.191416      -277.3225
  13   2.0000      -1.049343       -28.5541
  14   2.0000      -1.034628       -28.1537
  15   2.0000      -1.015556       -27.6347
  16   2.0000      -0.993243       -27.0275
  17   2.0000      -0.788421       -21.4540
  18   2.0000      -0.784341       -21.3430
  19   2.0000      -0.772329       -21.0161
  20   2.0000      -0.731746       -19.9118
  21   2.0000      -0.683743       -18.6056
  22   2.0000      -0.613444       -16.6927
  23   2.0000      -0.604360       -16.4455
  24   2.0000      -0.597162       -16.2496
  25   2.0000      -0.570408       -15.5216
  26   2.0000      -0.524632       -14.2760
  27   2.0000      -0.512687       -13.9509
  28   2.0000      -0.502195       -13.6654
  29   2.0000      -0.494197       -13.4478
  30   2.0000      -0.471057       -12.8181
  31   2.0000      -0.460900       -12.5417
  32   2.0000      -0.441350       -12.0098
  33   2.0000      -0.435211       -11.8427
  34   2.0000      -0.425007       -11.5650
  35   2.0000      -0.421100       -11.4587
  36   2.0000      -0.415644       -11.3102
  37   2.0000      -0.402356       -10.9487
  38   2.0000      -0.382436       -10.4066
  39   2.0000      -0.377751       -10.2791
  40   2.0000      -0.360944        -9.8218
  41   2.0000      -0.355557        -9.6752
  42   2.0000      -0.347919        -9.4674
  43   2.0000      -0.328554        -8.9404
  44   2.0000      -0.318577        -8.6689
  45   2.0000      -0.313020        -8.5177
  46   2.0000      -0.296024        -8.0552
  47   2.0000      -0.272674        -7.4198
  48   2.0000      -0.266559        -7.2534
  49   2.0000      -0.250455        -6.8152
  50   2.0000      -0.238760        -6.4970
  51   0.0000       0.043057         1.1716
  52   0.0000       0.070387         1.9153
  53   0.0000       0.083432         2.2703
  54   0.0000       0.091640         2.4936
  55   0.0000       0.100495         2.7346

MULLIKEN ATOMIC CHARGES
-----------------------
   0 C :    0.298247
   1 C :   -0.280687
   2 C :   -0.313660
   3 C :   -0.010895
   4 O :   -0.501902
   5 H :    0.168680
   6 H :    0.156966
   7 H :    0.146977
   8 H :    0.144677
   9 H :    0.139374
  10 H :    0.148447
  11 H :    0.146806
  12 C :   -0.020796
  13 H :    0.143017
  14 H :    0.115770
  15 O :   -0.502877
  16 C :    0.099167
  17 C :    0.079132
  18 C :   -0.327716
  19 C :   -0.012409
  20 O :   -0.499949
  21 H :    0.173090
  22 H :    0.170833
  23 O :   -0.599631
  24 H :    0.158813
  25 H :    0.129644
  26 H :    0.146093
  27 H :    0.151505
  28 H :    0.353283
Sum of atomic charges:   -0.0000000

LOEWDIN ATOMIC CHARGES
----------------------
   0 C :    0.172815
   1 C :   -0.229885
   2 C :   -0.224462
   3 C :   -0.034763
   4 O :   -0.321295
   5 H :    0.114557
   6 H :    0.122689
   7 H :    0.117140
   8 H :    0.115109
   9 H :    0.104835
  10 H :    0.103749
  11 H :    0.104580
  12 C :   -0.053162
  13 H :    0.103236
  14 H :    0.087126
  15 O :   -0.303113
  16 C :    0.022525
  17 C :    0.033207
  18 C :   -0.241985
  19 C :   -0.030697
  20 O :   -0.309030
  21 H :    0.124786
  22 H :    0.120634
  23 O :   -0.409132
  24 H :    0.122504
  25 H :    0.101639
  26 H :    0.103603
  27 H :    0.106472
  28 H :    0.276318

  Mayer bond orders larger than 0.100000
B(  0-C ,  1-C ) :   0.9160 B(  0-C ,  4-O ) :   0.8965 B(  0-C ,  5-H ) :   0.9356
B(  0-C , 15-O ) :   0.9153 B(  1-C ,  2-C ) :   0.9543 B(  1-C ,  6-H ) :   0.9358
B(  1-C ,  7-H ) :   0.9376 B(  2-C ,  3-C ) :   0.9461 B(  2-C ,  8-H ) :   0.9453
B(  2-C ,  9-H ) :   0.9424 B(  3-C ,  4-O ) :   0.8496 B(  3-C , 10-H ) :   0.9325
B(  3-C , 11-H ) :   0.9384 B( 12-C , 13-H ) :   0.8924 B( 12-C , 14-H ) :   0.9220
B( 12-C , 15-O ) :   0.8467 B( 12-C , 16-C ) :   0.9030 B( 16-C , 17-C ) :   0.8697
B( 16-C , 20-O ) :   0.8737 B( 16-C , 21-H ) :   0.9274 B( 17-C , 18-C ) :   0.9273
B( 17-C , 22-H ) :   0.9321 B( 17-C , 23-O ) :   0.8910 B( 18-C , 19-C ) :   0.9389
B( 18-C , 24-H ) :   0.9409 B( 18-C , 25-H ) :   0.9405 B( 19-C , 20-O ) :   0.8539
B( 19-C , 26-H ) :   0.9308 B( 19-C , 27-H ) :   0.9371 B( 23-O , 28-H ) :   0.8005

FINAL SINGLE POINT ENERGY      -652.849123743508

DIPOLE MOMENT
-------------
                                X             Y             Z
Electronic contribution:     -2.61853      -5.17450       0.92789
Nuclear contribution   :      3.11120       7.07008      -1.39742
                        -----------------------------------------
Total Dipole Moment    :      0.49266       1.89559      -0.46953
                        -----------------------------------------
Magnitude (a.u.)       :      2.01406
Magnitude (Debye)      :      5.11932

Rotational constants in cm-1:     0.049830     0.014045     0.012613
Rotational constants in MHz :  1493.857867   421.070609   378.116009

                             ****ORCA TERMINATED NORMALLY****
TOTAL RUN TIME: 0 days 0 hours 31 minutes 5 seconds 893 msec
