                         Program Version 4.2.0 -  RELEASE  -
|  1> # Test redundant internal optimization
|  2> #
|  3> ! RKS B3LYP  Opt TightSCF SmallPrint
|  4>
|  5> %basis
|  6>         Basis "6-31G"
|  7> end
|  8>
|  9> %geom
| 10> Constraints
| 11> { D 4  0  15  12  240.0   C } # D for Dihedral angle
| 12> { D 0  15  12  16  210.0   C } # D for Dihedral angle
| 13> { D 0  4  3  2   C } # D for Dihedral angle
| 14> { D 4  3  2  1   C } # D for Dihedral angle
| 15> { D 3  2  1  0   C } # D for Dihedral angle
| 16> { D 2  1  0  4   C } # D for Dihedral angle
| 17> { D 1  0  4  3   C } # D for Dihedral angle
| 18> { D 16  20  19  18   C } # D for Dihedral angle
| 19> { D 20  19  18  17   C } # D for Dihedral angle
| 20> { D 19  18  17  16   C } # D for Dihedral angle
| 21> { D 18  17  16  20   C } # D for Dihedral angle
| 22> { D 17  16  20  19   C } # D for Dihedral angle
| 23> { D 15  12  16  20   C } # D for Dihedral angle
| 24> end
| 25> end
| 26>
| 27>
| 28> #%pal
| 29> #nprocs 8
| 30> #end
| 31>
| 32> * xyz 0 1
| 33> C  -21.048   26.222   46.251
| 34> C  -20.361   27.558   45.944
| 35> C  -20.329   28.222   47.341
| 36> C  -20.110   27.022   48.296
| 37> O  -20.473   25.807   47.535
| 38> H  -20.833   25.428   45.533
| 39> H  -19.344   27.382   45.576
| 40> H  -20.898   28.157   45.201
| 41> H  -19.543   28.978   47.434
| 42> H  -21.289   28.710   47.548
| 43> H  -20.733   27.082   49.195
| 44> H  -19.064   26.913   48.597
| 45> C  -23.430   25.483   45.442
| 46> H  -22.859   25.271   44.529
| 47> H  -23.652   24.528   45.936
| 48> O  -22.586   26.394   46.375
| 49> C  -24.782   26.130   45.033
| 50> C  -25.637   25.160   44.210
| 51> C  -26.229   24.250   45.313
| 52> C  -26.436   25.225   46.499
| 53> O  -25.596   26.410   46.221
| 54> H  -24.588   27.087   44.545
| 55> O  -26.764   25.934   43.475
| 56> H  -25.058   24.602   43.466
| 57> H  -27.160   23.762   45.007
| 58> H  -25.511   23.465   45.580
| 59> H  -26.134   24.789   47.458
| 60> H  -27.470   25.574   46.578
| 61> H  -27.357   26.500   44.202
| 62> *
| 63>
| 64>                          ****END OF INPUT****
 Total Charge           Charge          ....    0
 Multiplicity           Mult            ....    1
 Number of Electrons    NEL             ....  102
FINAL SINGLE POINT ENERGY      -652.831434757385
FINAL SINGLE POINT ENERGY      -652.854413187623
FINAL SINGLE POINT ENERGY      -652.858222361976
FINAL SINGLE POINT ENERGY      -652.858891666109
FINAL SINGLE POINT ENERGY      -652.858962080705
FINAL SINGLE POINT ENERGY      -652.858970373278
                    ***********************HURRAY********************

CARTESIAN COORDINATES (ANGSTROEM)
---------------------------------
  C    -21.069704   26.155333   46.178103
  C    -20.510247   27.549516   45.896352
  C    -20.567128   28.205887   47.296972
  C    -20.252567   27.026416   48.243015
  O    -20.490913   25.795333   47.447928
  H    -20.786885   25.377712   45.462132
  H    -19.473857   27.464228   45.547579
  H    -21.094352   28.085503   45.144982
  H    -19.856969   29.030881   47.405714
  H    -21.576121   28.586157   47.480983
  H    -20.895882   27.001652   49.125770
  H    -19.204308   26.998769   48.555833
  C    -23.305341   25.368381   45.444869
  H    -22.778478   25.156580   44.501374
  H    -23.473581   24.415616   45.965699
  O    -22.514181   26.247899   46.284228
  C    -24.626785   26.061905   45.123944
  C    -25.581060   25.211277   44.274229
  C    -26.254115   24.319524   45.351231
  C    -26.354151   25.265624   46.573448
  O    -25.399933   26.373517   46.327329
  H    -24.409305   27.020586   44.643317
  O    -26.548911   26.050435   43.586380
  H    -25.087797   24.638977   43.487053
  H    -27.226404   23.963160   45.003803
  H    -25.625496   23.449080   45.569702
  H    -26.091352   24.772565   47.513967
  H    -27.347788   25.711960   46.679080
  H    -26.870388   26.740525   44.204984

 Multiplicity           Mult            ....    1
 Number of Electrons    NEL             ....  102
 Basis Dimension        Dim             ....  149

ORBITAL ENERGIES
----------------

  NO   OCC          E(Eh)            E(eV)
   0   2.0000     -19.140533      -520.8404
   1   2.0000     -19.140371      -520.8360
   2   2.0000     -19.138405      -520.7825
   3   2.0000     -19.134939      -520.6882
   4   2.0000     -10.277543      -279.6662
   5   2.0000     -10.244563      -278.7687
   6   2.0000     -10.235421      -278.5200
   7   2.0000     -10.235271      -278.5159
   8   2.0000     -10.229551      -278.3602
   9   2.0000     -10.220093      -278.1029
  10   2.0000     -10.190126      -277.2874
  11   2.0000     -10.181928      -277.0643
  12   2.0000     -10.180655      -277.0297
  13   2.0000      -1.049903       -28.5693
  14   2.0000      -1.036581       -28.2068
  15   2.0000      -1.007099       -27.4046
  16   2.0000      -0.991452       -26.9788
  17   2.0000      -0.788525       -21.4569
  18   2.0000      -0.780410       -21.2360
  19   2.0000      -0.767476       -20.8841
  20   2.0000      -0.728577       -19.8256
  21   2.0000      -0.674163       -18.3449
  22   2.0000      -0.605719       -16.4825
  23   2.0000      -0.594366       -16.1735
  24   2.0000      -0.592189       -16.1143
  25   2.0000      -0.584602       -15.9078
  26   2.0000      -0.526623       -14.3301
  27   2.0000      -0.511861       -13.9284
  28   2.0000      -0.494690       -13.4612
  29   2.0000      -0.486490       -13.2381
  30   2.0000      -0.474435       -12.9100
  31   2.0000      -0.458114       -12.4659
  32   2.0000      -0.451480       -12.2854
  33   2.0000      -0.438045       -11.9198
  34   2.0000      -0.428667       -11.6646
  35   2.0000      -0.407028       -11.0758
  36   2.0000      -0.397171       -10.8076
  37   2.0000      -0.394241       -10.7278
  38   2.0000      -0.373684       -10.1685
  39   2.0000      -0.370788       -10.0897
  40   2.0000      -0.360649        -9.8138
  41   2.0000      -0.352998        -9.6056
  42   2.0000      -0.347647        -9.4599
  43   2.0000      -0.331033        -9.0079
  44   2.0000      -0.313801        -8.5390
  45   2.0000      -0.309601        -8.4247
  46   2.0000      -0.301459        -8.2031
  47   2.0000      -0.272709        -7.4208
  48   2.0000      -0.262376        -7.1396
  49   2.0000      -0.252164        -6.8617
  50   2.0000      -0.237358        -6.4588
  51   0.0000       0.065502         1.7824
  52   0.0000       0.080006         2.1771
  53   0.0000       0.088765         2.4154
  54   0.0000       0.098782         2.6880
  55   0.0000       0.100518         2.7352

MULLIKEN ATOMIC CHARGES
-----------------------
   0 C :    0.279676
   1 C :   -0.250994
   2 C :   -0.300425
   3 C :   -0.000091
   4 O :   -0.503187
   5 H :    0.136448
   6 H :    0.140374
   7 H :    0.145022
   8 H :    0.138859
   9 H :    0.169719
  10 H :    0.153190
  11 H :    0.138779
  12 C :    0.001780
  13 H :    0.123588
  14 H :    0.139228
  15 O :   -0.504783
  16 C :    0.070347
  17 C :    0.076262
  18 C :   -0.294805
  19 C :   -0.024299
  20 O :   -0.509446
  21 H :    0.161622
  22 O :   -0.602804
  23 H :    0.149088
  24 H :    0.160947
  25 H :    0.145705
  26 H :    0.150338
  27 H :    0.143805
  28 H :    0.366060
Sum of atomic charges:   -0.0000000

LOEWDIN ATOMIC CHARGES
----------------------
   0 C :    0.175037
   1 C :   -0.220976
   2 C :   -0.216484
   3 C :   -0.025887
   4 O :   -0.317376
   5 H :    0.096726
   6 H :    0.111082
   7 H :    0.117485
   8 H :    0.112871
   9 H :    0.123007
  10 H :    0.108772
  11 H :    0.100689
  12 C :   -0.038095
  13 H :    0.093874
  14 H :    0.098920
  15 O :   -0.323009
  16 C :    0.016558
  17 C :    0.034811
  18 C :   -0.240699
  19 C :   -0.036459
  20 O :   -0.319560
  21 H :    0.117471
  22 O :   -0.414658
  23 H :    0.113935
  24 H :    0.126355
  25 H :    0.113147
  26 H :    0.106788
  27 H :    0.101545
  28 H :    0.284127

  Mayer bond orders larger than 0.100000
B(  0-C ,  1-C ) :   0.9410 B(  0-C ,  4-O ) :   0.9323 B(  0-C ,  5-H ) :   0.9191
B(  0-C , 15-O ) :   0.8462 B(  1-C ,  2-C ) :   0.9579 B(  1-C ,  6-H ) :   0.9371
B(  1-C ,  7-H ) :   0.9386 B(  2-C ,  3-C ) :   0.9547 B(  2-C ,  8-H ) :   0.9452
B(  2-C ,  9-H ) :   0.9419 B(  3-C ,  4-O ) :   0.8368 B(  3-C , 10-H ) :   0.9347
B(  3-C , 11-H ) :   0.9400 B( 12-C , 13-H ) :   0.9115 B( 12-C , 14-H ) :   0.9180
B( 12-C , 15-O ) :   0.8474 B( 12-C , 16-C ) :   0.8990 B( 16-C , 17-C ) :   0.8976
B( 16-C , 20-O ) :   0.8689 B( 16-C , 21-H ) :   0.9249 B( 17-C , 18-C ) :   0.9112
B( 17-C , 22-O ) :   0.8938 B( 17-C , 23-H ) :   0.9338 B( 18-C , 19-C ) :   0.9380
B( 18-C , 24-H ) :   0.9378 B( 18-C , 25-H ) :   0.9335 B( 19-C , 20-O ) :   0.8504
B( 19-C , 26-H ) :   0.9345 B( 19-C , 27-H ) :   0.9381 B( 22-O , 28-H ) :   0.7930

FINAL SINGLE POINT ENERGY      -652.858972172740

DIPOLE MOMENT
-------------
                                X             Y             Z
Electronic contribution:     -1.73969      -0.46876      -0.54428
Nuclear contribution   :      1.94544       0.35913       0.33124
                        -----------------------------------------
Total Dipole Moment    :      0.20575      -0.10963      -0.21304
                        -----------------------------------------
Magnitude (a.u.)       :      0.31581
Magnitude (Debye)      :      0.80273

Rotational constants in cm-1:     0.064340     0.011189     0.010834
Rotational constants in MHz :  1928.851288   335.435492   324.795647

                             ****ORCA TERMINATED NORMALLY****
TOTAL RUN TIME: 0 days 0 hours 22 minutes 1 seconds 41 msec
