                         Program Version 4.2.0 -  RELEASE  -
|  1> # Test redundant internal optimization
|  2> #
|  3> ! RKS B3LYP  Opt TightSCF SmallPrint
|  4>
|  5> %basis
|  6>         Basis "6-31G"
|  7> end
|  8>
|  9> %geom
| 10> Constraints
| 11> { D 4  0  15  12  30.0   C } # D for Dihedral angle
| 12> { D 0  15  12  16  255.0   C } # D for Dihedral angle
| 13> { D 0  4  3  2   C } # D for Dihedral angle
| 14> { D 4  3  2  1   C } # D for Dihedral angle
| 15> { D 3  2  1  0   C } # D for Dihedral angle
| 16> { D 2  1  0  4   C } # D for Dihedral angle
| 17> { D 1  0  4  3   C } # D for Dihedral angle
| 18> { D 16  20  19  18   C } # D for Dihedral angle
| 19> { D 20  19  18  17   C } # D for Dihedral angle
| 20> { D 19  18  17  16   C } # D for Dihedral angle
| 21> { D 18  17  16  20   C } # D for Dihedral angle
| 22> { D 17  16  20  19   C } # D for Dihedral angle
| 23> { D 15  12  16  20   C } # D for Dihedral angle
| 24> end
| 25> end
| 26>
| 27>
| 28> #%pal
| 29> #nprocs 8
| 30> #end
| 31>
| 32> * xyz 0 1
| 33> C  -21.048   26.222   46.251
| 34> C  -20.361   27.558   45.944
| 35> C  -20.329   28.222   47.341
| 36> C  -20.110   27.022   48.296
| 37> O  -20.473   25.807   47.535
| 38> H  -20.833   25.428   45.533
| 39> H  -19.344   27.382   45.576
| 40> H  -20.898   28.157   45.201
| 41> H  -19.543   28.978   47.434
| 42> H  -21.289   28.710   47.548
| 43> H  -20.733   27.082   49.195
| 44> H  -19.064   26.913   48.597
| 45> C  -23.091   26.824   47.779
| 46> H  -22.245   27.198   48.370
| 47> H  -23.831   27.630   47.691
| 48> O  -22.586   26.394   46.375
| 49> C  -23.755   25.657   48.562
| 50> C  -24.895   25.023   47.755
| 51> C  -24.115   24.121   46.768
| 52> C  -22.909   23.637   47.611
| 53> O  -22.800   24.563   48.759
| 54> H  -24.046   26.011   49.553
| 55> O  -25.794   24.166   48.687
| 56> H  -25.526   25.761   47.248
| 57> H  -24.717   23.291   46.385
| 58> H  -23.773   24.711   45.909
| 59> H  -21.970   23.650   47.048
| 60> H  -23.062   22.634   48.020
| 61> H  -25.182   23.419   49.205
| 62> *
| 63>
| 64>                          ****END OF INPUT****
 Total Charge           Charge          ....    0
 Multiplicity           Mult            ....    1
 Number of Electrons    NEL             ....  102
FINAL SINGLE POINT ENERGY      -652.820654644843
FINAL SINGLE POINT ENERGY      -652.845934746450
FINAL SINGLE POINT ENERGY      -652.854391210831
FINAL SINGLE POINT ENERGY      -652.856590450727
FINAL SINGLE POINT ENERGY      -652.856939327017
FINAL SINGLE POINT ENERGY      -652.856997296608
FINAL SINGLE POINT ENERGY      -652.857000615389
                    ***********************HURRAY********************

CARTESIAN COORDINATES (ANGSTROEM)
---------------------------------
  C    -21.085875   26.359967   46.357451
  C    -20.407923   27.680101   45.978936
  C    -20.142670   28.318342   47.369343
  C    -19.825107   27.088140   48.253037
  O    -20.351542   25.911771   47.510379
  H    -20.983175   25.583069   45.597968
  H    -19.464286   27.462869   45.465310
  H    -21.033920   28.295173   45.328761
  H    -19.315699   29.034864   47.351028
  H    -21.033049   28.847817   47.724402
  H    -20.295316   27.118587   49.239577
  H    -18.750272   26.924811   48.374841
  C    -23.166022   26.794253   47.789524
  H    -22.443958   27.212209   48.496452
  H    -23.923255   27.557835   47.573779
  O    -22.528144   26.477178   46.519672
  C    -23.839812   25.593833   48.467799
  C    -24.954417   24.912124   47.660714
  C    -24.145812   23.938704   46.761293
  C    -22.977026   23.507355   47.683027
  O    -22.908605   24.512581   48.768507
  H    -24.238331   25.949372   49.426096
  O    -25.874093   24.210951   48.546488
  H    -25.577056   25.606191   47.095301
  H    -24.768084   23.099761   46.438005
  H    -23.772925   24.479255   45.889487
  H    -22.012428   23.486062   47.170463
  H    -23.148408   22.534883   48.157573
  H    -25.354789   23.672942   49.180791

 Multiplicity           Mult            ....    1
 Number of Electrons    NEL             ....  102
 Basis Dimension        Dim             ....  149

ORBITAL ENERGIES
----------------

  NO   OCC          E(Eh)            E(eV)
   0   2.0000     -19.148635      -521.0608
   1   2.0000     -19.142805      -520.9022
   2   2.0000     -19.131422      -520.5925
   3   2.0000     -19.129506      -520.5403
   4   2.0000     -10.282587      -279.8034
   5   2.0000     -10.233476      -278.4670
   6   2.0000     -10.232967      -278.4532
   7   2.0000     -10.230609      -278.3890
   8   2.0000     -10.227568      -278.3063
   9   2.0000     -10.216988      -278.0184
  10   2.0000     -10.195108      -277.4230
  11   2.0000     -10.189018      -277.2573
  12   2.0000     -10.171492      -276.7804
  13   2.0000      -1.055093       -28.7105
  14   2.0000      -1.027396       -27.9569
  15   2.0000      -0.999541       -27.1989
  16   2.0000      -0.992299       -27.0018
  17   2.0000      -0.791560       -21.5395
  18   2.0000      -0.775993       -21.1159
  19   2.0000      -0.760708       -20.6999
  20   2.0000      -0.733923       -19.9711
  21   2.0000      -0.673435       -18.3251
  22   2.0000      -0.606352       -16.4997
  23   2.0000      -0.603477       -16.4214
  24   2.0000      -0.591569       -16.0974
  25   2.0000      -0.564629       -15.3643
  26   2.0000      -0.524833       -14.2814
  27   2.0000      -0.507992       -13.8232
  28   2.0000      -0.494132       -13.4460
  29   2.0000      -0.483026       -13.1438
  30   2.0000      -0.474167       -12.9027
  31   2.0000      -0.459441       -12.5020
  32   2.0000      -0.445370       -12.1191
  33   2.0000      -0.432897       -11.7797
  34   2.0000      -0.420550       -11.4437
  35   2.0000      -0.414581       -11.2813
  36   2.0000      -0.396301       -10.7839
  37   2.0000      -0.382468       -10.4075
  38   2.0000      -0.379901       -10.3376
  39   2.0000      -0.365551        -9.9472
  40   2.0000      -0.362287        -9.8583
  41   2.0000      -0.356859        -9.7106
  42   2.0000      -0.348161        -9.4739
  43   2.0000      -0.326915        -8.8958
  44   2.0000      -0.321094        -8.7374
  45   2.0000      -0.310016        -8.4360
  46   2.0000      -0.293788        -7.9944
  47   2.0000      -0.264643        -7.2013
  48   2.0000      -0.263167        -7.1611
  49   2.0000      -0.256325        -6.9750
  50   2.0000      -0.230491        -6.2720
  51   0.0000       0.067841         1.8460
  52   0.0000       0.079220         2.1557
  53   0.0000       0.094003         2.5580
  54   0.0000       0.101815         2.7705
  55   0.0000       0.108191         2.9440

MULLIKEN ATOMIC CHARGES
-----------------------
   0 C :    0.306051
   1 C :   -0.261591
   2 C :   -0.315751
   3 C :   -0.017846
   4 O :   -0.498606
   5 H :    0.158033
   6 H :    0.148609
   7 H :    0.155436
   8 H :    0.149650
   9 H :    0.149510
  10 H :    0.154170
  11 H :    0.151329
  12 C :   -0.008842
  13 H :    0.143752
  14 H :    0.141252
  15 O :   -0.540960
  16 C :    0.080534
  17 C :    0.080816
  18 C :   -0.292105
  19 C :   -0.020094
  20 O :   -0.518843
  21 H :    0.145287
  22 O :   -0.606442
  23 H :    0.148366
  24 H :    0.146914
  25 H :    0.171215
  26 H :    0.156298
  27 H :    0.132471
  28 H :    0.361386
Sum of atomic charges:    0.0000000

LOEWDIN ATOMIC CHARGES
----------------------
   0 C :    0.180052
   1 C :   -0.224676
   2 C :   -0.223376
   3 C :   -0.033702
   4 O :   -0.308333
   5 H :    0.107553
   6 H :    0.116312
   7 H :    0.122424
   8 H :    0.118154
   9 H :    0.110280
  10 H :    0.105743
  11 H :    0.107208
  12 C :   -0.036721
  13 H :    0.105292
  14 H :    0.107430
  15 O :   -0.338832
  16 C :    0.008140
  17 C :    0.038234
  18 C :   -0.242951
  19 C :   -0.032943
  20 O :   -0.323782
  21 H :    0.112006
  22 O :   -0.419287
  23 H :    0.114226
  24 H :    0.117808
  25 H :    0.128270
  26 H :    0.109583
  27 H :    0.094950
  28 H :    0.280939

  Mayer bond orders larger than 0.100000
B(  0-C ,  1-C ) :   0.9234 B(  0-C ,  4-O ) :   0.9189 B(  0-C ,  5-H ) :   0.9341
B(  0-C , 15-O ) :   0.8500 B(  1-C ,  2-C ) :   0.9540 B(  1-C ,  6-H ) :   0.9348
B(  1-C ,  7-H ) :   0.9372 B(  2-C ,  3-C ) :   0.9485 B(  2-C ,  8-H ) :   0.9445
B(  2-C ,  9-H ) :   0.9438 B(  3-C ,  4-O ) :   0.8342 B(  3-C , 10-H ) :   0.9286
B(  3-C , 11-H ) :   0.9385 B( 12-C , 13-H ) :   0.9148 B( 12-C , 14-H ) :   0.9263
B( 12-C , 15-O ) :   0.8518 B( 12-C , 16-C ) :   0.8821 B( 16-C , 17-C ) :   0.9124
B( 16-C , 20-O ) :   0.8825 B( 16-C , 21-H ) :   0.9179 B( 17-C , 18-C ) :   0.9231
B( 17-C , 22-O ) :   0.8881 B( 17-C , 23-H ) :   0.9358 B( 18-C , 19-C ) :   0.9463
B( 18-C , 24-H ) :   0.9372 B( 18-C , 25-H ) :   0.9199 B( 19-C , 20-O ) :   0.8366
B( 19-C , 26-H ) :   0.9304 B( 19-C , 27-H ) :   0.9382 B( 22-O , 28-H ) :   0.7968

FINAL SINGLE POINT ENERGY      -652.856999575545

DIPOLE MOMENT
-------------
                                X             Y             Z
Electronic contribution:     -2.67714      -3.25889       1.53360
Nuclear contribution   :      3.55581       4.21295      -1.84715
                        -----------------------------------------
Total Dipole Moment    :      0.87867       0.95406      -0.31356
                        -----------------------------------------
Magnitude (a.u.)       :      1.33439
Magnitude (Debye)      :      3.39176

Rotational constants in cm-1:     0.061003     0.015088     0.014827
Rotational constants in MHz :  1828.838190   452.339414   444.494804

                             ****ORCA TERMINATED NORMALLY****
TOTAL RUN TIME: 0 days 0 hours 26 minutes 6 seconds 645 msec
