                         Program Version 4.2.0 -  RELEASE  -
|  1> # Test redundant internal optimization
|  2> #
|  3> ! RKS B3LYP  Opt TightSCF SmallPrint
|  4>
|  5> %basis
|  6>         Basis "6-31G"
|  7> end
|  8>
|  9> %geom
| 10> Constraints
| 11> { D 4  0  15  12  345.0   C } # D for Dihedral angle
| 12> { D 0  15  12  16  270.0   C } # D for Dihedral angle
| 13> { D 0  4  3  2   C } # D for Dihedral angle
| 14> { D 4  3  2  1   C } # D for Dihedral angle
| 15> { D 3  2  1  0   C } # D for Dihedral angle
| 16> { D 2  1  0  4   C } # D for Dihedral angle
| 17> { D 1  0  4  3   C } # D for Dihedral angle
| 18> { D 16  20  19  18   C } # D for Dihedral angle
| 19> { D 20  19  18  17   C } # D for Dihedral angle
| 20> { D 19  18  17  16   C } # D for Dihedral angle
| 21> { D 18  17  16  20   C } # D for Dihedral angle
| 22> { D 17  16  20  19   C } # D for Dihedral angle
| 23> { D 15  12  16  20   C } # D for Dihedral angle
| 24> end
| 25> end
| 26>
| 27>
| 28> #%pal
| 29> #nprocs 8
| 30> #end
| 31>
| 32> * xyz 0 1
| 33> C  -21.048   26.222   46.251
| 34> C  -20.361   27.558   45.944
| 35> C  -20.329   28.222   47.341
| 36> C  -20.110   27.022   48.296
| 37> O  -20.473   25.807   47.535
| 38> H  -20.833   25.428   45.533
| 39> H  -19.344   27.382   45.576
| 40> H  -20.898   28.157   45.201
| 41> H  -19.543   28.978   47.434
| 42> H  -21.289   28.710   47.548
| 43> H  -20.733   27.082   49.195
| 44> H  -19.064   26.913   48.597
| 45> C  -23.221   25.764   47.645
| 46> H  -22.492   25.790   48.465
| 47> H  -24.106   26.335   47.955
| 48> O  -22.586   26.394   46.375
| 49> C  -23.661   24.290   47.429
| 50> C  -22.455   23.384   47.156
| 51> C  -21.895   23.169   48.583
| 52> C  -23.172   23.133   49.460
| 53> O  -24.251   23.746   48.656
| 54> H  -24.434   24.257   46.659
| 55> O  -22.929   22.037   46.544
| 56> H  -21.724   23.832   46.476
| 57> H  -21.302   22.254   48.672
| 58> H  -21.255   24.013   48.866
| 59> H  -23.056   23.694   50.392
| 60> H  -23.487   22.113   49.697
| 61> H  -23.663   21.567   47.210
| 62> *
| 63>
| 64>                          ****END OF INPUT****
 Total Charge           Charge          ....    0
 Multiplicity           Mult            ....    1
 Number of Electrons    NEL             ....  102
FINAL SINGLE POINT ENERGY      -652.835839784841
FINAL SINGLE POINT ENERGY      -652.858672534030
FINAL SINGLE POINT ENERGY      -652.862839105580
FINAL SINGLE POINT ENERGY      -652.864061572692
FINAL SINGLE POINT ENERGY      -652.864200504175
FINAL SINGLE POINT ENERGY      -652.864224001877
                    ***********************HURRAY********************

CARTESIAN COORDINATES (ANGSTROEM)
---------------------------------
  C    -21.018610   26.226080   46.308949
  C    -20.463082   27.608292   45.963259
  C    -20.384943   28.273713   47.356530
  C    -20.007319   27.102534   48.289296
  O    -20.335843   25.860149   47.529669
  H    -20.784563   25.443669   45.582595
  H    -19.467157   27.497231   45.519302
  H    -21.109695   28.143417   45.265169
  H    -19.651657   29.084864   47.395262
  H    -21.363327   28.683664   47.624928
  H    -20.566820   27.098632   49.228599
  H    -18.936648   27.055393   48.505995
  C    -23.137631   25.747227   47.602716
  H    -22.508607   25.837022   48.494093
  H    -24.034497   26.354103   47.741443
  O    -22.464618   26.317975   46.441052
  C    -23.560274   24.283995   47.408043
  C    -22.443697   23.253511   47.181086
  C    -21.926669   23.027379   48.626885
  C    -23.212785   23.143944   49.482071
  O    -24.219306   23.837246   48.642135
  H    -24.301142   24.220263   46.604976
  O    -22.991449   22.035802   46.598165
  H    -21.665515   23.575068   46.493266
  H    -21.445404   22.049910   48.716584
  H    -21.196227   23.802543   48.874206
  H    -23.062454   23.717481   50.402391
  H    -23.632629   22.168391   49.746458
  H    -23.821433   21.803500   47.065878

 Multiplicity           Mult            ....    1
 Number of Electrons    NEL             ....  102
 Basis Dimension        Dim             ....  149

ORBITAL ENERGIES
----------------

  NO   OCC          E(Eh)            E(eV)
   0   2.0000     -19.159009      -521.3431
   1   2.0000     -19.142349      -520.8898
   2   2.0000     -19.140166      -520.8304
   3   2.0000     -19.130508      -520.5676
   4   2.0000     -10.284833      -279.8645
   5   2.0000     -10.238563      -278.6055
   6   2.0000     -10.231786      -278.4211
   7   2.0000     -10.226619      -278.2804
   8   2.0000     -10.226277      -278.2711
   9   2.0000     -10.225988      -278.2633
  10   2.0000     -10.194378      -277.4031
  11   2.0000     -10.190020      -277.2845
  12   2.0000     -10.177118      -276.9334
  13   2.0000      -1.060868       -28.8677
  14   2.0000      -1.031104       -28.0578
  15   2.0000      -0.999778       -27.2053
  16   2.0000      -0.995827       -27.0978
  17   2.0000      -0.796210       -21.6660
  18   2.0000      -0.771613       -20.9967
  19   2.0000      -0.764554       -20.8046
  20   2.0000      -0.736696       -20.0465
  21   2.0000      -0.673299       -18.3214
  22   2.0000      -0.608772       -16.5655
  23   2.0000      -0.597249       -16.2520
  24   2.0000      -0.595078       -16.1929
  25   2.0000      -0.574145       -15.6233
  26   2.0000      -0.524830       -14.2814
  27   2.0000      -0.513062       -13.9611
  28   2.0000      -0.505776       -13.7629
  29   2.0000      -0.482841       -13.1388
  30   2.0000      -0.471773       -12.8376
  31   2.0000      -0.458073       -12.4648
  32   2.0000      -0.453121       -12.3301
  33   2.0000      -0.431220       -11.7341
  34   2.0000      -0.419545       -11.4164
  35   2.0000      -0.412068       -11.2129
  36   2.0000      -0.407779       -11.0962
  37   2.0000      -0.386388       -10.5141
  38   2.0000      -0.377755       -10.2792
  39   2.0000      -0.366139        -9.9632
  40   2.0000      -0.360653        -9.8139
  41   2.0000      -0.358025        -9.7424
  42   2.0000      -0.353362        -9.6155
  43   2.0000      -0.335649        -9.1335
  44   2.0000      -0.323673        -8.8076
  45   2.0000      -0.308016        -8.3815
  46   2.0000      -0.300999        -8.1906
  47   2.0000      -0.272719        -7.4211
  48   2.0000      -0.270791        -7.3686
  49   2.0000      -0.259892        -7.0720
  50   2.0000      -0.234496        -6.3809
  51   0.0000       0.068148         1.8544
  52   0.0000       0.070765         1.9256
  53   0.0000       0.091615         2.4930
  54   0.0000       0.097415         2.6508
  55   0.0000       0.107055         2.9131

MULLIKEN ATOMIC CHARGES
-----------------------
   0 C :    0.299858
   1 C :   -0.258366
   2 C :   -0.302753
   3 C :   -0.018296
   4 O :   -0.520155
   5 H :    0.158042
   6 H :    0.145683
   7 H :    0.165623
   8 H :    0.148220
   9 H :    0.160063
  10 H :    0.146203
  11 H :    0.153345
  12 C :   -0.012520
  13 H :    0.140421
  14 H :    0.162285
  15 O :   -0.537597
  16 C :    0.051370
  17 C :    0.084382
  18 C :   -0.301857
  19 C :   -0.033654
  20 O :   -0.527799
  21 H :    0.162097
  22 O :   -0.605581
  23 H :    0.165490
  24 H :    0.154479
  25 H :    0.172277
  26 H :    0.142678
  27 H :    0.143807
  28 H :    0.362254
Sum of atomic charges:    0.0000000

LOEWDIN ATOMIC CHARGES
----------------------
   0 C :    0.177965
   1 C :   -0.216417
   2 C :   -0.217253
   3 C :   -0.031618
   4 O :   -0.325013
   5 H :    0.100445
   6 H :    0.114171
   7 H :    0.128678
   8 H :    0.117865
   9 H :    0.117912
  10 H :    0.102891
  11 H :    0.108250
  12 C :   -0.040294
  13 H :    0.101455
  14 H :    0.118918
  15 O :   -0.339075
  16 C :    0.007220
  17 C :    0.038296
  18 C :   -0.244367
  19 C :   -0.039548
  20 O :   -0.332691
  21 H :    0.115330
  22 O :   -0.417860
  23 H :    0.121227
  24 H :    0.123244
  25 H :    0.126586
  26 H :    0.101632
  27 H :    0.100907
  28 H :    0.281142

  Mayer bond orders larger than 0.100000
B(  0-C ,  1-C ) :   0.9373 B(  0-C ,  4-O ) :   0.8935 B(  0-C ,  5-H ) :   0.9189
B(  0-C , 15-O ) :   0.8446 B(  1-C ,  2-C ) :   0.9528 B(  1-C ,  6-H ) :   0.9361
B(  1-C ,  7-H ) :   0.9350 B(  2-C ,  3-C ) :   0.9548 B(  2-C ,  8-H ) :   0.9443
B(  2-C ,  9-H ) :   0.9446 B(  3-C ,  4-O ) :   0.8240 B(  3-C , 10-H ) :   0.9325
B(  3-C , 11-H ) :   0.9402 B( 12-C , 13-H ) :   0.9183 B( 12-C , 14-H ) :   0.9341
B( 12-C , 15-O ) :   0.8378 B( 12-C , 16-C ) :   0.8834 B( 16-C , 17-C ) :   0.9157
B( 16-C , 20-O ) :   0.8336 B( 16-C , 21-H ) :   0.9268 B( 17-C , 18-C ) :   0.9147
B( 17-C , 22-O ) :   0.8865 B( 17-C , 23-H ) :   0.9240 B( 18-C , 19-C ) :   0.9412
B( 18-C , 24-H ) :   0.9389 B( 18-C , 25-H ) :   0.9201 B( 19-C , 20-O ) :   0.8404
B( 19-C , 26-H ) :   0.9362 B( 19-C , 27-H ) :   0.9386 B( 22-O , 28-H ) :   0.7956

FINAL SINGLE POINT ENERGY      -652.864226132951

DIPOLE MOMENT
-------------
                                X             Y             Z
Electronic contribution:     -3.74573      -3.56658      -2.40974
Nuclear contribution   :      4.58994       4.54516       3.10404
                        -----------------------------------------
Total Dipole Moment    :      0.84421       0.97858       0.69431
                        -----------------------------------------
Magnitude (a.u.)       :      1.46709
Magnitude (Debye)      :      3.72906

Rotational constants in cm-1:     0.052412     0.015182     0.014786
Rotational constants in MHz :  1571.263470   455.154213   443.285196

                             ****ORCA TERMINATED NORMALLY****
TOTAL RUN TIME: 0 days 1 hours 7 minutes 10 seconds 858 msec
