                         Program Version 4.2.0 -  RELEASE  -
|  1> # Test redundant internal optimization
|  2> #
|  3> ! RKS B3LYP  Opt TightSCF SmallPrint
|  4>
|  5> %basis
|  6>         Basis "6-31G"
|  7> end
|  8>
|  9> %geom
| 10> Constraints
| 11> { D 4  0  15  12  255.0   C } # D for Dihedral angle
| 12> { D 0  15  12  16  135.0   C } # D for Dihedral angle
| 13> { D 0  4  3  2   C } # D for Dihedral angle
| 14> { D 4  3  2  1   C } # D for Dihedral angle
| 15> { D 3  2  1  0   C } # D for Dihedral angle
| 16> { D 2  1  0  4   C } # D for Dihedral angle
| 17> { D 1  0  4  3   C } # D for Dihedral angle
| 18> { D 16  20  19  18   C } # D for Dihedral angle
| 19> { D 20  19  18  17   C } # D for Dihedral angle
| 20> { D 19  18  17  16   C } # D for Dihedral angle
| 21> { D 18  17  16  20   C } # D for Dihedral angle
| 22> { D 17  16  20  19   C } # D for Dihedral angle
| 23> { D 15  12  16  20   C } # D for Dihedral angle
| 24> end
| 25> end
| 26>
| 27>
| 28> #%pal
| 29> #nprocs 8
| 30> #end
| 31>
| 32> * xyz 0 1
| 33> C  -21.048   26.222   46.251
| 34> C  -20.361   27.558   45.944
| 35> C  -20.329   28.222   47.341
| 36> C  -20.110   27.022   48.296
| 37> O  -20.473   25.807   47.535
| 38> H  -20.833   25.428   45.533
| 39> H  -19.344   27.382   45.576
| 40> H  -20.898   28.157   45.201
| 41> H  -19.543   28.978   47.434
| 42> H  -21.289   28.710   47.548
| 43> H  -20.733   27.082   49.195
| 44> H  -19.064   26.913   48.597
| 45> C  -23.431   25.260   45.734
| 46> H  -23.860   25.617   44.789
| 47> H  -22.801   24.387   45.516
| 48> O  -22.586   26.394   46.375
| 49> C  -24.594   24.786   46.649
| 50> C  -25.333   23.591   46.037
| 51> C  -24.380   22.422   46.381
| 52> C  -23.819   22.824   47.768
| 53> O  -24.070   24.273   47.919
| 54> H  -25.232   25.639   46.887
| 55> O  -26.709   23.401   46.733
| 56> H  -25.503   23.697   44.959
| 57> H  -24.888   21.452   46.402
| 58> H  -23.574   22.363   45.641
| 59> H  -22.743   22.636   47.855
| 60> H  -24.335   22.320   48.590
| 61> H  -26.562   23.293   47.813
| 62> *
| 63>
| 64>                          ****END OF INPUT****
 Total Charge           Charge          ....    0
 Multiplicity           Mult            ....    1
 Number of Electrons    NEL             ....  102
FINAL SINGLE POINT ENERGY      -652.832467853769
FINAL SINGLE POINT ENERGY      -652.855593212436
FINAL SINGLE POINT ENERGY      -652.859591023111
FINAL SINGLE POINT ENERGY      -652.860300225032
FINAL SINGLE POINT ENERGY      -652.860386156637
FINAL SINGLE POINT ENERGY      -652.860396647045
FINAL SINGLE POINT ENERGY      -652.860399245877
                    ***********************HURRAY********************

CARTESIAN COORDINATES (ANGSTROEM)
---------------------------------
  C    -21.040741   26.160112   46.182917
  C    -20.489985   27.568911   45.963244
  C    -20.541297   28.158968   47.393167
  C    -20.214713   26.937352   48.281240
  O    -20.451700   25.744360   47.431787
  H    -20.756997   25.413650   45.434468
  H    -19.455179   27.504210   45.606104
  H    -21.081539   28.134293   45.240280
  H    -19.833556   28.980967   47.535782
  H    -21.550215   28.526650   47.601642
  H    -20.852637   26.867536   49.165227
  H    -19.164137   26.901894   48.585881
  C    -23.282372   25.220297   45.664485
  H    -23.735034   25.610953   44.741866
  H    -22.650558   24.359979   45.403256
  O    -22.480703   26.258949   46.278874
  C    -24.389609   24.799913   46.631271
  C    -25.273233   23.662204   46.100731
  C    -24.421405   22.411743   46.444668
  C    -23.755093   22.804516   47.787408
  O    -23.856802   24.280069   47.890668
  H    -24.983958   25.681599   46.888882
  O    -26.556291   23.641946   46.784676
  H    -25.513946   23.742319   45.039169
  H    -25.055880   21.525563   46.524034
  H    -23.673678   22.231091   45.664220
  H    -22.700504   22.519539   47.839843
  H    -24.275737   22.382740   48.652576
  H    -26.407504   23.803674   47.740633

 Multiplicity           Mult            ....    1
 Number of Electrons    NEL             ....  102
 Basis Dimension        Dim             ....  149

ORBITAL ENERGIES
----------------

  NO   OCC          E(Eh)            E(eV)
   0   2.0000     -19.138665      -520.7896
   1   2.0000     -19.137150      -520.7483
   2   2.0000     -19.136798      -520.7388
   3   2.0000     -19.131662      -520.5990
   4   2.0000     -10.276588      -279.6402
   5   2.0000     -10.241992      -278.6988
   6   2.0000     -10.233909      -278.4788
   7   2.0000     -10.231649      -278.4173
   8   2.0000     -10.226665      -278.2817
   9   2.0000     -10.217776      -278.0398
  10   2.0000     -10.188702      -277.2487
  11   2.0000     -10.180781      -277.0331
  12   2.0000     -10.179764      -277.0055
  13   2.0000      -1.048809       -28.5395
  14   2.0000      -1.033575       -28.1250
  15   2.0000      -1.004072       -27.3222
  16   2.0000      -0.989959       -26.9382
  17   2.0000      -0.787171       -21.4200
  18   2.0000      -0.778587       -21.1864
  19   2.0000      -0.764717       -20.8090
  20   2.0000      -0.726745       -19.7757
  21   2.0000      -0.672301       -18.2942
  22   2.0000      -0.602282       -16.3889
  23   2.0000      -0.592704       -16.1283
  24   2.0000      -0.589623       -16.0445
  25   2.0000      -0.584904       -15.9160
  26   2.0000      -0.524862       -14.2822
  27   2.0000      -0.510040       -13.8789
  28   2.0000      -0.490101       -13.3363
  29   2.0000      -0.483946       -13.1688
  30   2.0000      -0.474972       -12.9247
  31   2.0000      -0.456555       -12.4235
  32   2.0000      -0.450742       -12.2653
  33   2.0000      -0.433407       -11.7936
  34   2.0000      -0.427219       -11.6252
  35   2.0000      -0.405093       -11.0231
  36   2.0000      -0.396675       -10.7941
  37   2.0000      -0.391627       -10.6567
  38   2.0000      -0.372756       -10.1432
  39   2.0000      -0.370265       -10.0754
  40   2.0000      -0.352874        -9.6022
  41   2.0000      -0.350779        -9.5452
  42   2.0000      -0.344973        -9.3872
  43   2.0000      -0.330633        -8.9970
  44   2.0000      -0.315026        -8.5723
  45   2.0000      -0.304018        -8.2728
  46   2.0000      -0.300752        -8.1839
  47   2.0000      -0.269687        -7.3385
  48   2.0000      -0.263995        -7.1837
  49   2.0000      -0.245738        -6.6869
  50   2.0000      -0.237277        -6.4566
  51   0.0000       0.068488         1.8637
  52   0.0000       0.083467         2.2713
  53   0.0000       0.089177         2.4266
  54   0.0000       0.102924         2.8007
  55   0.0000       0.109367         2.9760

MULLIKEN ATOMIC CHARGES
-----------------------
   0 C :    0.285259
   1 C :   -0.254399
   2 C :   -0.299219
   3 C :    0.000689
   4 O :   -0.500776
   5 H :    0.134793
   6 H :    0.140524
   7 H :    0.147675
   8 H :    0.137929
   9 H :    0.164550
  10 H :    0.156461
  11 H :    0.137043
  12 C :    0.006930
  13 H :    0.130402
  14 H :    0.126861
  15 O :   -0.513052
  16 C :    0.070067
  17 C :    0.075317
  18 C :   -0.299076
  19 C :   -0.026759
  20 O :   -0.506223
  21 H :    0.168143
  22 O :   -0.601417
  23 H :    0.149055
  24 H :    0.163150
  25 H :    0.141532
  26 H :    0.155235
  27 H :    0.144190
  28 H :    0.365115
Sum of atomic charges:   -0.0000000

LOEWDIN ATOMIC CHARGES
----------------------
   0 C :    0.176075
   1 C :   -0.218956
   2 C :   -0.215999
   3 C :   -0.025964
   4 O :   -0.318831
   5 H :    0.094996
   6 H :    0.111194
   7 H :    0.119133
   8 H :    0.112042
   9 H :    0.120337
  10 H :    0.110453
  11 H :    0.099907
  12 C :   -0.036578
  13 H :    0.097862
  14 H :    0.095439
  15 O :   -0.323507
  16 C :    0.014361
  17 C :    0.033537
  18 C :   -0.242356
  19 C :   -0.037189
  20 O :   -0.317772
  21 H :    0.120003
  22 O :   -0.414116
  23 H :    0.113758
  24 H :    0.126737
  25 H :    0.111212
  26 H :    0.109049
  27 H :    0.101789
  28 H :    0.283383

  Mayer bond orders larger than 0.100000
B(  0-C ,  1-C ) :   0.9457 B(  0-C ,  4-O ) :   0.9290 B(  0-C ,  5-H ) :   0.9197
B(  0-C , 15-O ) :   0.8528 B(  1-C ,  2-C ) :   0.9589 B(  1-C ,  6-H ) :   0.9389
B(  1-C ,  7-H ) :   0.9382 B(  2-C ,  3-C ) :   0.9545 B(  2-C ,  8-H ) :   0.9455
B(  2-C ,  9-H ) :   0.9435 B(  3-C ,  4-O ) :   0.8380 B(  3-C , 10-H ) :   0.9339
B(  3-C , 11-H ) :   0.9401 B( 12-C , 13-H ) :   0.9181 B( 12-C , 14-H ) :   0.9177
B( 12-C , 15-O ) :   0.8489 B( 12-C , 16-C ) :   0.8971 B( 16-C , 17-C ) :   0.8987
B( 16-C , 20-O ) :   0.8712 B( 16-C , 21-H ) :   0.9242 B( 17-C , 18-C ) :   0.9109
B( 17-C , 22-O ) :   0.8919 B( 17-C , 23-H ) :   0.9327 B( 18-C , 19-C ) :   0.9413
B( 18-C , 24-H ) :   0.9375 B( 18-C , 25-H ) :   0.9338 B( 19-C , 20-O ) :   0.8497
B( 19-C , 26-H ) :   0.9328 B( 19-C , 27-H ) :   0.9382 B( 22-O , 28-H ) :   0.7937

FINAL SINGLE POINT ENERGY      -652.860399339862

DIPOLE MOMENT
-------------
                                X             Y             Z
Electronic contribution:     -3.04048      -1.06112       1.15114
Nuclear contribution   :      3.65952       1.06493      -1.75380
                        -----------------------------------------
Total Dipole Moment    :      0.61904       0.00381      -0.60266
                        -----------------------------------------
Magnitude (a.u.)       :      0.86396
Magnitude (Debye)      :      2.19602

Rotational constants in cm-1:     0.063480     0.012488     0.011816
Rotational constants in MHz :  1903.095687   374.371053   354.235083

                             ****ORCA TERMINATED NORMALLY****
TOTAL RUN TIME: 0 days 0 hours 26 minutes 16 seconds 223 msec
