                         Program Version 4.2.0 -  RELEASE  -
|  1> # Test redundant internal optimization
|  2> #
|  3> ! RKS B3LYP  Opt TightSCF SmallPrint
|  4>
|  5> %basis
|  6>         Basis "6-31G"
|  7> end
|  8>
|  9> %geom
| 10> Constraints
| 11> { D 4  0  15  12  165.0   C } # D for Dihedral angle
| 12> { D 0  15  12  16  120.0   C } # D for Dihedral angle
| 13> { D 0  4  3  2   C } # D for Dihedral angle
| 14> { D 4  3  2  1   C } # D for Dihedral angle
| 15> { D 3  2  1  0   C } # D for Dihedral angle
| 16> { D 2  1  0  4   C } # D for Dihedral angle
| 17> { D 1  0  4  3   C } # D for Dihedral angle
| 18> { D 16  20  19  18   C } # D for Dihedral angle
| 19> { D 20  19  18  17   C } # D for Dihedral angle
| 20> { D 19  18  17  16   C } # D for Dihedral angle
| 21> { D 18  17  16  20   C } # D for Dihedral angle
| 22> { D 17  16  20  19   C } # D for Dihedral angle
| 23> { D 15  12  16  20   C } # D for Dihedral angle
| 24> end
| 25> end
| 26>
| 27>
| 28> #%pal
| 29> #nprocs 8
| 30> #end
| 31>
| 32> * xyz 0 1
| 33> C  -21.048   26.222   46.251
| 34> C  -20.361   27.558   45.944
| 35> C  -20.329   28.222   47.341
| 36> C  -20.110   27.022   48.296
| 37> O  -20.473   25.807   47.535
| 38> H  -20.833   25.428   45.533
| 39> H  -19.344   27.382   45.576
| 40> H  -20.898   28.157   45.201
| 41> H  -19.543   28.978   47.434
| 42> H  -21.289   28.710   47.548
| 43> H  -20.733   27.082   49.195
| 44> H  -19.064   26.913   48.597
| 45> C  -23.260   27.170   45.210
| 46> H  -23.749   28.068   45.609
| 47> H  -22.509   27.486   44.475
| 48> O  -22.586   26.394   46.375
| 49> C  -24.327   26.324   44.463
| 50> C  -25.506   25.979   45.380
| 51> C  -26.315   27.299   45.360
| 52> C  -26.109   27.815   43.913
| 53> O  -24.930   27.103   43.376
| 54> H  -23.842   25.459   44.006
| 55> H  -26.092   25.160   44.947
| 56> O  -25.066   25.564   46.810
| 57> H  -27.371   27.153   45.605
| 58> H  -25.897   28.006   46.086
| 59> H  -25.926   28.893   43.875
| 60> H  -26.954   27.577   43.261
| 61> H  -24.478   26.370   47.263
| 62> *
| 63>
| 64>                          ****END OF INPUT****
 Total Charge           Charge          ....    0
 Multiplicity           Mult            ....    1
 Number of Electrons    NEL             ....  102
FINAL SINGLE POINT ENERGY      -652.825333694334
FINAL SINGLE POINT ENERGY      -652.849481364651
FINAL SINGLE POINT ENERGY      -652.856244059092
FINAL SINGLE POINT ENERGY      -652.858734478178
FINAL SINGLE POINT ENERGY      -652.860276977930
FINAL SINGLE POINT ENERGY      -652.861267550097
FINAL SINGLE POINT ENERGY      -652.861780011645
FINAL SINGLE POINT ENERGY      -652.861913973551
FINAL SINGLE POINT ENERGY      -652.861934038789
FINAL SINGLE POINT ENERGY      -652.861937319390
                    ***********************HURRAY********************

CARTESIAN COORDINATES (ANGSTROEM)
---------------------------------
  C    -21.115295   26.262667   46.193215
  C    -20.262009   27.501486   45.930919
  C    -20.319987   28.229136   47.297702
  C    -20.343395   27.061557   48.303896
  O    -20.749520   25.865178   47.516203
  H    -20.937083   25.412846   45.529961
  H    -19.240494   27.174469   45.705620
  H    -20.604158   28.123620   45.100731
  H    -19.465363   28.894755   47.450132
  H    -21.235724   28.823825   47.369449
  H    -21.061018   27.201321   49.115453
  H    -19.358538   26.835690   48.721599
  C    -23.203537   27.295393   45.139100
  H    -23.625277   28.211957   45.564110
  H    -22.491827   27.571238   44.355329
  O    -22.555216   26.554111   46.227812
  C    -24.289476   26.402180   44.526772
  C    -25.430359   26.023555   45.485491
  C    -26.309860   27.306985   45.449084
  C    -26.167143   27.790309   43.991120
  O    -24.953299   27.115783   43.437890
  H    -23.817135   25.519799   44.084253
  H    -25.989509   25.188271   45.046346
  O    -25.040960   25.639339   46.816864
  H    -27.345930   27.096797   45.727068
  H    -25.909648   28.029968   46.168196
  H    -26.036338   28.873769   43.902164
  H    -27.006280   27.483828   43.359928
  H    -24.077623   25.811168   46.948594

 Multiplicity           Mult            ....    1
 Number of Electrons    NEL             ....  102
 Basis Dimension        Dim             ....  149

ORBITAL ENERGIES
----------------

  NO   OCC          E(Eh)            E(eV)
   0   2.0000     -19.160269      -521.3774
   1   2.0000     -19.152675      -521.1708
   2   2.0000     -19.140182      -520.8308
   3   2.0000     -19.108159      -519.9594
   4   2.0000     -10.295177      -280.1460
   5   2.0000     -10.240646      -278.6622
   6   2.0000     -10.234842      -278.5042
   7   2.0000     -10.233293      -278.4621
   8   2.0000     -10.228050      -278.3194
   9   2.0000     -10.226512      -278.2775
  10   2.0000     -10.200796      -277.5778
  11   2.0000     -10.198206      -277.5073
  12   2.0000     -10.177593      -276.9464
  13   2.0000      -1.066226       -29.0135
  14   2.0000      -1.025035       -27.8926
  15   2.0000      -1.006323       -27.3834
  16   2.0000      -0.987689       -26.8764
  17   2.0000      -0.798704       -21.7338
  18   2.0000      -0.774445       -21.0737
  19   2.0000      -0.766923       -20.8690
  20   2.0000      -0.739565       -20.1246
  21   2.0000      -0.682779       -18.5794
  22   2.0000      -0.612460       -16.6659
  23   2.0000      -0.601098       -16.3567
  24   2.0000      -0.595156       -16.1950
  25   2.0000      -0.576060       -15.6754
  26   2.0000      -0.531556       -14.4644
  27   2.0000      -0.520897       -14.1743
  28   2.0000      -0.505436       -13.7536
  29   2.0000      -0.488385       -13.2896
  30   2.0000      -0.476087       -12.9550
  31   2.0000      -0.462967       -12.5980
  32   2.0000      -0.446567       -12.1517
  33   2.0000      -0.431207       -11.7338
  34   2.0000      -0.428673       -11.6648
  35   2.0000      -0.419883       -11.4256
  36   2.0000      -0.410906       -11.1813
  37   2.0000      -0.388288       -10.5658
  38   2.0000      -0.385228       -10.4826
  39   2.0000      -0.371583       -10.1113
  40   2.0000      -0.366673        -9.9777
  41   2.0000      -0.362739        -9.8706
  42   2.0000      -0.347259        -9.4494
  43   2.0000      -0.342375        -9.3165
  44   2.0000      -0.321873        -8.7586
  45   2.0000      -0.316615        -8.6155
  46   2.0000      -0.280353        -7.6288
  47   2.0000      -0.279172        -7.5967
  48   2.0000      -0.272156        -7.4057
  49   2.0000      -0.244519        -6.6537
  50   2.0000      -0.238701        -6.4954
  51   0.0000       0.058325         1.5871
  52   0.0000       0.074909         2.0384
  53   0.0000       0.092312         2.5119
  54   0.0000       0.095570         2.6006
  55   0.0000       0.101439         2.7603

MULLIKEN ATOMIC CHARGES
-----------------------
   0 C :    0.318330
   1 C :   -0.287962
   2 C :   -0.300267
   3 C :   -0.004782
   4 O :   -0.496851
   5 H :    0.156416
   6 H :    0.156610
   7 H :    0.149576
   8 H :    0.148377
   9 H :    0.159021
  10 H :    0.160054
  11 H :    0.148990
  12 C :   -0.030020
  13 H :    0.150276
  14 H :    0.152920
  15 O :   -0.559031
  16 C :    0.059560
  17 C :    0.126381
  18 C :   -0.303784
  19 C :   -0.026008
  20 O :   -0.522766
  21 H :    0.150394
  22 H :    0.143485
  23 O :   -0.643246
  24 H :    0.152020
  25 H :    0.147635
  26 H :    0.141929
  27 H :    0.150927
  28 H :    0.401815
Sum of atomic charges:   -0.0000000

LOEWDIN ATOMIC CHARGES
----------------------
   0 C :    0.187450
   1 C :   -0.231247
   2 C :   -0.216069
   3 C :   -0.025084
   4 O :   -0.299446
   5 H :    0.105000
   6 H :    0.121345
   7 H :    0.116783
   8 H :    0.117735
   9 H :    0.116381
  10 H :    0.112539
  11 H :    0.106589
  12 C :   -0.047790
  13 H :    0.106524
  14 H :    0.109691
  15 O :   -0.349623
  16 C :    0.013140
  17 C :    0.043292
  18 C :   -0.237075
  19 C :   -0.034194
  20 O :   -0.327063
  21 H :    0.111132
  22 H :    0.102667
  23 O :   -0.435970
  24 H :    0.121818
  25 H :    0.111971
  26 H :    0.101236
  27 H :    0.106566
  28 H :    0.291706

  Mayer bond orders larger than 0.100000
B(  0-C ,  1-C ) :   0.9358 B(  0-C ,  4-O ) :   0.9519 B(  0-C ,  5-H ) :   0.9236
B(  0-C , 15-O ) :   0.7894 B(  1-C ,  2-C ) :   0.9473 B(  1-C ,  6-H ) :   0.9330
B(  1-C ,  7-H ) :   0.9277 B(  2-C ,  3-C ) :   0.9551 B(  2-C ,  8-H ) :   0.9444
B(  2-C ,  9-H ) :   0.9456 B(  3-C ,  4-O ) :   0.8272 B(  3-C , 10-H ) :   0.9342
B(  3-C , 11-H ) :   0.9394 B( 12-C , 13-H ) :   0.9305 B( 12-C , 14-H ) :   0.9206
B( 12-C , 15-O ) :   0.7923 B( 12-C , 16-C ) :   0.8899 B( 16-C , 17-C ) :   0.9145
B( 16-C , 20-O ) :   0.8544 B( 16-C , 21-H ) :   0.9317 B( 17-C , 18-C ) :   0.9026
B( 17-C , 22-H ) :   0.9296 B( 17-C , 23-O ) :   0.9391 B( 18-C , 19-C ) :   0.9393
B( 18-C , 24-H ) :   0.9445 B( 18-C , 25-H ) :   0.9422 B( 19-C , 20-O ) :   0.8319
B( 19-C , 26-H ) :   0.9342 B( 19-C , 27-H ) :   0.9381 B( 23-O , 28-H ) :   0.7182

FINAL SINGLE POINT ENERGY      -652.861937873232

DIPOLE MOMENT
-------------
                                X             Y             Z
Electronic contribution:     -0.88165      -5.01055      -0.35495
Nuclear contribution   :      1.89572       6.38497       0.03250
                        -----------------------------------------
Total Dipole Moment    :      1.01408       1.37443      -0.32245
                        -----------------------------------------
Magnitude (a.u.)       :      1.73821
Magnitude (Debye)      :      4.41818

Rotational constants in cm-1:     0.057310     0.013303     0.012203
Rotational constants in MHz :  1718.120353   398.804553   365.837758

                             ****ORCA TERMINATED NORMALLY****
TOTAL RUN TIME: 0 days 0 hours 30 minutes 44 seconds 389 msec
