                         Program Version 4.2.1 -  RELEASE  -
|  1> # Test redundant internal optimization
|  2> #
|  3> ! RKS B3LYP  Opt TightSCF SmallPrint
|  4>
|  5> %basis
|  6>         Basis "6-31G"
|  7> end
|  8>
|  9> %geom
| 10> Constraints
| 11> { D 4  0  19  14  0.0   C } # D for Dihedral angle
| 12> { D 0  19  14  12  75.0   C } # D for Dihedral angle
| 13> { D 0  4  3  2   C } # D for Dihedral angle
| 14> { D 4  3  2  1   C } # D for Dihedral angle
| 15> { D 3  2  1  0   C } # D for Dihedral angle
| 16> { D 2  1  0  4   C } # D for Dihedral angle
| 17> { D 1  0  4  3   C } # D for Dihedral angle
| 18> { D 14  15  16  17   C } # D for Dihedral angle
| 19> { D 15  16  17  12   C } # D for Dihedral angle
| 20> { D 16  17  12  14   C } # D for Dihedral angle
| 21> { D 17  12  14  15   C } # D for Dihedral angle
| 22> { D 12  14  15  16   C } # D for Dihedral angle
| 23> end
| 24> end
| 25>
| 26>
| 27> #%pal
| 28> #nprocs 8
| 29> #end
| 30>
| 31> * xyz 0 1
| 32> C  -21.048   26.222   46.251
| 33> C  -20.361   27.558   45.944
| 34> C  -20.329   28.222   47.341
| 35> C  -20.110   27.022   48.296
| 36> O  -20.473   25.807   47.535
| 37> H  -20.833   25.428   45.533
| 38> H  -19.344   27.382   45.576
| 39> H  -20.898   28.157   45.201
| 40> H  -19.543   28.978   47.434
| 41> H  -21.289   28.710   47.548
| 42> H  -20.733   27.082   49.195
| 43> H  -19.064   26.913   48.597
| 44> C  -22.665   27.261   48.627
| 45> H  -22.789   26.961   49.680
| 46> C  -22.995   26.105   47.675
| 47> C  -24.541   26.139   47.665
| 48> C  -24.861   27.651   47.773
| 49> O  -23.633   28.306   48.276
| 50> H  -21.671   27.689   48.492
| 51> O  -22.472   26.381   46.366
| 52> H  -22.593   25.143   48.012
| 53> H  -24.970   25.685   46.766
| 54> H  -24.936   25.597   48.533
| 55> H  -25.686   27.858   48.463
| 56> H  -25.091   28.100   46.802
| 57> *
| 58>
| 59>                          ****END OF INPUT****
 Total Charge           Charge          ....    0
 Multiplicity           Mult            ....    1
 Number of Electrons    NEL             ....   86
FINAL SINGLE POINT ENERGY      -538.365208855056
FINAL SINGLE POINT ENERGY      -538.422633690804
FINAL SINGLE POINT ENERGY      -538.426835080796
FINAL SINGLE POINT ENERGY      -538.427389050297
FINAL SINGLE POINT ENERGY      -538.427509357969
FINAL SINGLE POINT ENERGY      -538.427539081750
FINAL SINGLE POINT ENERGY      -538.427542927075
FINAL SINGLE POINT ENERGY      -538.427543722508
                    ***********************HURRAY********************

CARTESIAN COORDINATES (ANGSTROEM)
---------------------------------
  C    -21.024627   26.247116   46.382822
  C    -20.420059   27.570146   45.905894
  C    -20.097220   28.274902   47.247436
  C    -19.681887   27.102260   48.166464
  O    -20.206298   25.870753   47.511534
  H    -20.899622   25.435101   45.659837
  H    -19.506121   27.356598   45.339987
  H    -21.110386   28.136599   45.277663
  H    -19.302898   29.021387   47.152100
  H    -20.995106   28.778629   47.621240
  H    -20.075408   27.167118   49.183753
  H    -18.595616   26.979035   48.220766
  C    -22.986577   27.162181   48.926962
  H    -23.349380   26.777206   49.892584
  C    -23.128047   26.070988   47.866188
  C    -24.628706   26.153471   47.537612
  C    -24.944161   27.662315   47.660171
  O    -23.836946   28.254761   48.446443
  H    -21.989660   27.566080   49.059512
  O    -22.460640   26.335572   46.595314
  H    -22.821207   25.090482   48.248526
  H    -24.826036   25.754121   46.541095
  H    -25.198646   25.569579   48.269377
  H    -25.890278   27.855573   48.177568
  H    -24.952467   28.165030   46.690149

 Multiplicity           Mult            ....    1
 Number of Electrons    NEL             ....   86
 Basis Dimension        Dim             ....  127

ORBITAL ENERGIES
----------------

  NO   OCC          E(Eh)            E(eV)
   0   2.0000     -19.149916      -521.0957
   1   2.0000     -19.134943      -520.6883
   2   2.0000     -19.128938      -520.5249
   3   2.0000     -10.277197      -279.6567
   4   2.0000     -10.239006      -278.6175
   5   2.0000     -10.231403      -278.4106
   6   2.0000     -10.220517      -278.1144
   7   2.0000     -10.218154      -278.0501
   8   2.0000     -10.187193      -277.2076
   9   2.0000     -10.183278      -277.1011
  10   2.0000     -10.181979      -277.0657
  11   2.0000      -1.050756       -28.5925
  12   2.0000      -1.013771       -27.5861
  13   2.0000      -0.987997       -26.8848
  14   2.0000      -0.791537       -21.5388
  15   2.0000      -0.779045       -21.1989
  16   2.0000      -0.739998       -20.1364
  17   2.0000      -0.721379       -19.6297
  18   2.0000      -0.620439       -16.8830
  19   2.0000      -0.600941       -16.3524
  20   2.0000      -0.593789       -16.1578
  21   2.0000      -0.562997       -15.3199
  22   2.0000      -0.511015       -13.9054
  23   2.0000      -0.503914       -13.7122
  24   2.0000      -0.494685       -13.4611
  25   2.0000      -0.483307       -13.1514
  26   2.0000      -0.451985       -12.2991
  27   2.0000      -0.440199       -11.9784
  28   2.0000      -0.427202       -11.6247
  29   2.0000      -0.414586       -11.2815
  30   2.0000      -0.409375       -11.1396
  31   2.0000      -0.377563       -10.2740
  32   2.0000      -0.370410       -10.0794
  33   2.0000      -0.361068        -9.8252
  34   2.0000      -0.360049        -9.7974
  35   2.0000      -0.355991        -9.6870
  36   2.0000      -0.342318        -9.3149
  37   2.0000      -0.327315        -8.9067
  38   2.0000      -0.308651        -8.3988
  39   2.0000      -0.300621        -8.1803
  40   2.0000      -0.263634        -7.1738
  41   2.0000      -0.247945        -6.7469
  42   2.0000      -0.233542        -6.3550
  43   0.0000       0.079759         2.1704
  44   0.0000       0.093019         2.5312
  45   0.0000       0.099530         2.7083
  46   0.0000       0.109564         2.9814
  47   0.0000       0.110823         3.0156

MULLIKEN ATOMIC CHARGES
-----------------------
   0 C :    0.315970
   1 C :   -0.261576
   2 C :   -0.325331
   3 C :   -0.025003
   4 O :   -0.517053
   5 H :    0.154137
   6 H :    0.145274
   7 H :    0.161993
   8 H :    0.146871
   9 H :    0.181936
  10 H :    0.148109
  11 H :    0.150777
  12 C :   -0.001541
  13 H :    0.123466
  14 C :    0.091907
  15 C :   -0.289259
  16 C :    0.005678
  17 O :   -0.530650
  18 H :    0.144349
  19 O :   -0.548269
  20 H :    0.139076
  21 H :    0.163943
  22 H :    0.140741
  23 H :    0.131744
  24 H :    0.152711
Sum of atomic charges:    0.0000000

LOEWDIN ATOMIC CHARGES
----------------------
   0 C :    0.183688
   1 C :   -0.219311
   2 C :   -0.224488
   3 C :   -0.036714
   4 O :   -0.321961
   5 H :    0.101756
   6 H :    0.114291
   7 H :    0.126864
   8 H :    0.117496
   9 H :    0.124537
  10 H :    0.100443
  11 H :    0.106426
  12 C :   -0.048714
  13 H :    0.093104
  14 C :    0.048856
  15 C :   -0.221755
  16 C :   -0.026619
  17 O :   -0.336646
  18 H :    0.111461
  19 O :   -0.340740
  20 H :    0.102863
  21 H :    0.129322
  22 H :    0.111209
  23 H :    0.096629
  24 H :    0.108003

  Mayer bond orders larger than 0.100000
B(  0-C ,  1-C ) :   0.9283 B(  0-C ,  4-O ) :   0.9075 B(  0-C ,  5-H ) :   0.9327
B(  0-C , 19-O ) :   0.8485 B(  1-C ,  2-C ) :   0.9537 B(  1-C ,  6-H ) :   0.9361
B(  1-C ,  7-H ) :   0.9358 B(  2-C ,  3-C ) :   0.9522 B(  2-C ,  8-H ) :   0.9439
B(  2-C ,  9-H ) :   0.9296 B(  3-C ,  4-O ) :   0.8323 B(  3-C , 10-H ) :   0.9210
B(  3-C , 11-H ) :   0.9374 B( 12-C , 13-H ) :   0.9125 B( 12-C , 14-C ) :   0.9122
B( 12-C , 17-O ) :   0.8642 B( 12-C , 18-H ) :   0.9187 B( 14-C , 15-C ) :   0.9569
B( 14-C , 19-O ) :   0.8238 B( 14-C , 20-H ) :   0.9223 B( 15-C , 16-C ) :   0.9453
B( 15-C , 21-H ) :   0.9364 B( 15-C , 22-H ) :   0.9430 B( 16-C , 17-O ) :   0.8508
B( 16-C , 23-H ) :   0.9344 B( 16-C , 24-H ) :   0.9372

FINAL SINGLE POINT ENERGY      -538.427543330044

DIPOLE MOMENT
-------------
                                X             Y             Z
Electronic contribution:     -0.10712      -1.95725      -0.49454
Nuclear contribution   :      0.28370       1.87839       0.52183
                        -----------------------------------------
Total Dipole Moment    :      0.17658      -0.07886       0.02729
                        -----------------------------------------
Magnitude (a.u.)       :      0.19531
Magnitude (Debye)      :      0.49643

Rotational constants in cm-1:     0.069258     0.025331     0.023799
Rotational constants in MHz :  2076.302917   759.403137   713.474675

                             ****ORCA TERMINATED NORMALLY****
TOTAL RUN TIME: 0 days 0 hours 11 minutes 20 seconds 808 msec
