                         Program Version 4.2.0 -  RELEASE  -
|  1> # Test redundant internal optimization
|  2> #
|  3> ! RKS B3LYP  Opt TightSCF SmallPrint
|  4>
|  5> %basis
|  6>         Basis "6-31G"
|  7> end
|  8>
|  9> %geom
| 10> Constraints
| 11> { D 4  0  15  12  240.0   C } # D for Dihedral angle
| 12> { D 0  15  12  16  210.0   C } # D for Dihedral angle
| 13> { D 0  4  3  2   C } # D for Dihedral angle
| 14> { D 4  3  2  1   C } # D for Dihedral angle
| 15> { D 3  2  1  0   C } # D for Dihedral angle
| 16> { D 2  1  0  4   C } # D for Dihedral angle
| 17> { D 1  0  4  3   C } # D for Dihedral angle
| 18> { D 16  20  19  18   C } # D for Dihedral angle
| 19> { D 20  19  18  17   C } # D for Dihedral angle
| 20> { D 19  18  17  16   C } # D for Dihedral angle
| 21> { D 18  17  16  20   C } # D for Dihedral angle
| 22> { D 17  16  20  19   C } # D for Dihedral angle
| 23> { D 15  12  16  20   C } # D for Dihedral angle
| 24> end
| 25> end
| 26>
| 27>
| 28> #%pal
| 29> #nprocs 8
| 30> #end
| 31>
| 32> * xyz 0 1
| 33> C  -21.048   26.222   46.251
| 34> C  -20.361   27.558   45.944
| 35> C  -20.329   28.222   47.341
| 36> C  -20.110   27.022   48.296
| 37> O  -20.473   25.807   47.535
| 38> H  -20.833   25.428   45.533
| 39> H  -19.344   27.382   45.576
| 40> H  -20.898   28.157   45.201
| 41> H  -19.543   28.978   47.434
| 42> H  -21.289   28.710   47.548
| 43> H  -20.733   27.082   49.195
| 44> H  -19.064   26.913   48.597
| 45> C  -23.430   25.483   45.442
| 46> H  -22.859   25.271   44.529
| 47> H  -23.652   24.528   45.936
| 48> O  -22.586   26.394   46.375
| 49> C  -24.782   26.130   45.033
| 50> C  -24.563   27.388   44.186
| 51> C  -24.257   26.780   42.796
| 52> C  -25.161   25.523   42.755
| 53> O  -25.536   25.229   44.155
| 54> H  -25.388   26.286   45.927
| 55> H  -25.483   27.984   44.153
| 56> O  -23.415   28.289   44.716
| 57> H  -24.468   27.472   41.975
| 58> H  -23.199   26.499   42.733
| 59> H  -24.650   24.652   42.331
| 60> H  -26.089   25.693   42.202
| 61> H  -22.484   27.712   44.757
| 62> *
| 63>
| 64>                          ****END OF INPUT****
 Total Charge           Charge          ....    0
 Multiplicity           Mult            ....    1
 Number of Electrons    NEL             ....  102
FINAL SINGLE POINT ENERGY      -652.822992803582
FINAL SINGLE POINT ENERGY      -652.848663784622
FINAL SINGLE POINT ENERGY      -652.855225801220
FINAL SINGLE POINT ENERGY      -652.858329695424
FINAL SINGLE POINT ENERGY      -652.860262528298
FINAL SINGLE POINT ENERGY      -652.862014565527
FINAL SINGLE POINT ENERGY      -652.863367307707
FINAL SINGLE POINT ENERGY      -652.864118239915
FINAL SINGLE POINT ENERGY      -652.864437780279
FINAL SINGLE POINT ENERGY      -652.864491782774
FINAL SINGLE POINT ENERGY      -652.864508851497
FINAL SINGLE POINT ENERGY      -652.864513625122
                    ***********************HURRAY********************

CARTESIAN COORDINATES (ANGSTROEM)
---------------------------------
  C    -21.059560   26.147803   46.220121
  C    -20.383208   27.474084   45.878209
  C    -20.409653   28.207607   47.240748
  C    -20.209302   27.060878   48.254086
  O    -20.536226   25.811537   47.514511
  H    -20.831737   25.314828   45.550757
  H    -19.350959   27.274874   45.567392
  H    -20.890838   28.013906   45.075810
  H    -19.631630   28.972968   47.317408
  H    -21.378795   28.694630   47.389652
  H    -20.866514   27.131112   49.123960
  H    -19.172427   26.962226   48.587481
  C    -23.329870   25.434736   45.448642
  H    -22.761481   25.145946   44.554685
  H    -23.582698   24.528696   46.008158
  O    -22.514124   26.325515   46.288912
  C    -24.619046   26.160805   45.045265
  C    -24.442630   27.421765   44.185393
  C    -24.212876   26.810778   42.773730
  C    -25.117920   25.560466   42.781690
  O    -25.418810   25.265561   44.212378
  H    -25.209391   26.363446   45.944215
  H    -25.386069   27.981360   44.191761
  O    -23.380993   28.307985   44.603610
  H    -24.469435   27.513644   41.976417
  H    -23.152921   26.556328   42.668738
  H    -24.644955   24.681676   42.332339
  H    -26.080038   25.732326   42.290664
  H    -22.982895   27.936513   45.425270

 Multiplicity           Mult            ....    1
 Number of Electrons    NEL             ....  102
 Basis Dimension        Dim             ....  149

ORBITAL ENERGIES
----------------

  NO   OCC          E(Eh)            E(eV)
   0   2.0000     -19.161626      -521.4144
   1   2.0000     -19.146539      -521.0038
   2   2.0000     -19.144124      -520.9381
   3   2.0000     -19.124842      -520.4134
   4   2.0000     -10.290100      -280.0079
   5   2.0000     -10.239916      -278.6423
   6   2.0000     -10.238144      -278.5941
   7   2.0000     -10.236570      -278.5512
   8   2.0000     -10.230876      -278.3963
   9   2.0000     -10.229851      -278.3684
  10   2.0000     -10.191293      -277.3192
  11   2.0000     -10.190475      -277.2969
  12   2.0000     -10.185308      -277.1563
  13   2.0000      -1.061621       -28.8882
  14   2.0000      -1.030355       -28.0374
  15   2.0000      -1.008632       -27.4463
  16   2.0000      -0.998892       -27.1812
  17   2.0000      -0.793781       -21.5999
  18   2.0000      -0.776629       -21.1332
  19   2.0000      -0.770872       -20.9765
  20   2.0000      -0.735682       -20.0189
  21   2.0000      -0.681240       -18.5375
  22   2.0000      -0.604981       -16.4624
  23   2.0000      -0.603358       -16.4182
  24   2.0000      -0.595396       -16.2016
  25   2.0000      -0.586293       -15.9538
  26   2.0000      -0.527319       -14.3491
  27   2.0000      -0.522277       -14.2119
  28   2.0000      -0.500669       -13.6239
  29   2.0000      -0.490917       -13.3585
  30   2.0000      -0.472929       -12.8691
  31   2.0000      -0.461636       -12.5618
  32   2.0000      -0.444849       -12.1049
  33   2.0000      -0.434726       -11.8295
  34   2.0000      -0.428985       -11.6733
  35   2.0000      -0.427152       -11.6234
  36   2.0000      -0.405221       -11.0266
  37   2.0000      -0.389967       -10.6115
  38   2.0000      -0.381872       -10.3913
  39   2.0000      -0.375782       -10.2255
  40   2.0000      -0.361520        -9.8375
  41   2.0000      -0.359027        -9.7696
  42   2.0000      -0.350525        -9.5383
  43   2.0000      -0.343256        -9.3405
  44   2.0000      -0.326451        -8.8832
  45   2.0000      -0.319218        -8.6864
  46   2.0000      -0.296607        -8.0711
  47   2.0000      -0.275061        -7.4848
  48   2.0000      -0.265463        -7.2236
  49   2.0000      -0.254568        -6.9272
  50   2.0000      -0.245749        -6.6872
  51   0.0000       0.051753         1.4083
  52   0.0000       0.074695         2.0326
  53   0.0000       0.090650         2.4667
  54   0.0000       0.094791         2.5794
  55   0.0000       0.105871         2.8809

MULLIKEN ATOMIC CHARGES
-----------------------
   0 C :    0.295753
   1 C :   -0.291739
   2 C :   -0.305412
   3 C :   -0.002582
   4 O :   -0.498955
   5 H :    0.148099
   6 H :    0.151304
   7 H :    0.169352
   8 H :    0.148892
   9 H :    0.162319
  10 H :    0.155311
  11 H :    0.145487
  12 C :   -0.007969
  13 H :    0.135283
  14 H :    0.170353
  15 O :   -0.548525
  16 C :    0.035564
  17 C :    0.117211
  18 C :   -0.301548
  19 C :   -0.021602
  20 O :   -0.517387
  21 H :    0.166096
  22 H :    0.146456
  23 O :   -0.646341
  24 H :    0.154133
  25 H :    0.146176
  26 H :    0.143085
  27 H :    0.152485
  28 H :    0.398703
Sum of atomic charges:   -0.0000000

LOEWDIN ATOMIC CHARGES
----------------------
   0 C :    0.178737
   1 C :   -0.230951
   2 C :   -0.216869
   3 C :   -0.026122
   4 O :   -0.310824
   5 H :    0.103102
   6 H :    0.118008
   7 H :    0.127446
   8 H :    0.117973
   9 H :    0.117302
  10 H :    0.109933
  11 H :    0.104621
  12 C :   -0.040482
  13 H :    0.097067
  14 H :    0.116999
  15 O :   -0.344756
  16 C :    0.014824
  17 C :    0.041175
  18 C :   -0.233926
  19 C :   -0.032150
  20 O :   -0.320374
  21 H :    0.117177
  22 H :    0.103188
  23 O :   -0.437695
  24 H :    0.122246
  25 H :    0.111502
  26 H :    0.102477
  27 H :    0.107497
  28 H :    0.282874

  Mayer bond orders larger than 0.100000
B(  0-C ,  1-C ) :   0.9431 B(  0-C ,  4-O ) :   0.9452 B(  0-C ,  5-H ) :   0.9204
B(  0-C , 15-O ) :   0.8048 B(  1-C ,  2-C ) :   0.9520 B(  1-C ,  6-H ) :   0.9363
B(  1-C ,  7-H ) :   0.9177 B(  2-C ,  3-C ) :   0.9518 B(  2-C ,  8-H ) :   0.9449
B(  2-C ,  9-H ) :   0.9439 B(  3-C ,  4-O ) :   0.8323 B(  3-C , 10-H ) :   0.9346
B(  3-C , 11-H ) :   0.9396 B( 12-C , 13-H ) :   0.9192 B( 12-C , 14-H ) :   0.9234
B( 12-C , 15-O ) :   0.7959 B( 12-C , 16-C ) :   0.9085 B( 16-C , 17-C ) :   0.9165
B( 16-C , 20-O ) :   0.8585 B( 16-C , 21-H ) :   0.9272 B( 17-C , 18-C ) :   0.9110
B( 17-C , 22-H ) :   0.9251 B( 17-C , 23-O ) :   0.9203 B( 18-C , 19-C ) :   0.9409
B( 18-C , 24-H ) :   0.9439 B( 18-C , 25-H ) :   0.9421 B( 19-C , 20-O ) :   0.8321
B( 19-C , 26-H ) :   0.9340 B( 19-C , 27-H ) :   0.9376 B( 23-O , 28-H ) :   0.7067

FINAL SINGLE POINT ENERGY      -652.864513809283

DIPOLE MOMENT
-------------
                                X             Y             Z
Electronic contribution:     -2.58546      -2.58047       2.17361
Nuclear contribution   :      3.24062       2.77542      -2.60213
                        -----------------------------------------
Total Dipole Moment    :      0.65516       0.19496      -0.42852
                        -----------------------------------------
Magnitude (a.u.)       :      0.80677
Magnitude (Debye)      :      2.05065

Rotational constants in cm-1:     0.061454     0.013774     0.012510
Rotational constants in MHz :  1842.354809   412.934046   375.053750

                             ****ORCA TERMINATED NORMALLY****
TOTAL RUN TIME: 0 days 0 hours 34 minutes 52 seconds 856 msec
