                         Program Version 4.2.0 -  RELEASE  -
|  1> # Test redundant internal optimization
|  2> #
|  3> ! RKS B3LYP  Opt TightSCF SmallPrint
|  4>
|  5> %basis
|  6>         Basis "6-31G"
|  7> end
|  8>
|  9> %geom
| 10> Constraints
| 11> { D 4  0  15  12  255.0   C } # D for Dihedral angle
| 12> { D 0  15  12  16  225.0   C } # D for Dihedral angle
| 13> { D 0  4  3  2   C } # D for Dihedral angle
| 14> { D 4  3  2  1   C } # D for Dihedral angle
| 15> { D 3  2  1  0   C } # D for Dihedral angle
| 16> { D 2  1  0  4   C } # D for Dihedral angle
| 17> { D 1  0  4  3   C } # D for Dihedral angle
| 18> { D 16  20  19  18   C } # D for Dihedral angle
| 19> { D 20  19  18  17   C } # D for Dihedral angle
| 20> { D 19  18  17  16   C } # D for Dihedral angle
| 21> { D 18  17  16  20   C } # D for Dihedral angle
| 22> { D 17  16  20  19   C } # D for Dihedral angle
| 23> { D 15  12  16  20   C } # D for Dihedral angle
| 24> end
| 25> end
| 26>
| 27>
| 28> #%pal
| 29> #nprocs 8
| 30> #end
| 31>
| 32> * xyz 0 1
| 33> C  -21.048   26.222   46.251
| 34> C  -20.361   27.558   45.944
| 35> C  -20.329   28.222   47.341
| 36> C  -20.110   27.022   48.296
| 37> O  -20.473   25.807   47.535
| 38> H  -20.833   25.428   45.533
| 39> H  -19.344   27.382   45.576
| 40> H  -20.898   28.157   45.201
| 41> H  -19.543   28.978   47.434
| 42> H  -21.289   28.710   47.548
| 43> H  -20.733   27.082   49.195
| 44> H  -19.064   26.913   48.597
| 45> C  -23.431   25.260   45.734
| 46> H  -22.791   24.658   45.077
| 47> H  -23.841   24.601   46.510
| 48> O  -22.586   26.394   46.375
| 49> C  -24.622   25.799   44.894
| 50> C  -24.131   26.596   43.680
| 51> C  -23.750   25.465   42.696
| 52> C  -24.808   24.373   42.988
| 53> O  -25.384   24.689   44.313
| 54> H  -25.303   26.346   45.549
| 55> O  -25.289   27.457   43.105
| 56> H  -23.291   27.260   43.912
| 57> H  -23.763   25.790   41.651
| 58> H  -22.741   25.097   42.919
| 59> H  -24.376   23.367   43.016
| 60> H  -25.630   24.384   42.268
| 61> H  -26.143   26.812   42.865
| 62> *
| 63>
| 64>                          ****END OF INPUT****
 Total Charge           Charge          ....    0
 Multiplicity           Mult            ....    1
 Number of Electrons    NEL             ....  102
FINAL SINGLE POINT ENERGY      -652.837016985191
FINAL SINGLE POINT ENERGY      -652.859673037102
FINAL SINGLE POINT ENERGY      -652.863473373881
FINAL SINGLE POINT ENERGY      -652.864128432648
FINAL SINGLE POINT ENERGY      -652.864205683050
FINAL SINGLE POINT ENERGY      -652.864216402711
FINAL SINGLE POINT ENERGY      -652.864218382609
                    ***********************HURRAY********************

CARTESIAN COORDINATES (ANGSTROEM)
---------------------------------
  C    -21.060468   26.130301   46.218729
  C    -20.465741   27.499268   45.886976
  C    -20.514697   28.210722   47.261211
  C    -20.233884   27.060780   48.253965
  O    -20.496927   25.805999   47.506621
  H    -20.790533   25.315616   45.539509
  H    -19.429785   27.371619   45.551292
  H    -21.028458   28.021647   45.110508
  H    -19.784394   29.021193   47.343165
  H    -21.514112   28.624962   47.423018
  H    -20.881165   27.086540   49.134053
  H    -19.188464   27.021211   48.574434
  C    -23.331128   25.199925   45.756441
  H    -22.726499   24.517711   45.141414
  H    -23.763974   24.618360   46.577208
  O    -22.498719   26.267238   46.291406
  C    -24.456858   25.818314   44.924726
  C    -24.006174   26.608946   43.687193
  C    -23.734080   25.471098   42.669332
  C    -24.818676   24.421120   43.016507
  O    -25.300121   24.747727   44.381858
  H    -25.090152   26.436088   45.567459
  O    -25.061553   27.498530   43.229242
  H    -23.145844   27.248032   43.875803
  H    -23.813656   25.843254   41.644887
  H    -22.726090   25.064831   42.808064
  H    -24.437681   23.395579   43.009407
  H    -25.684992   24.475915   42.349485
  H    -25.920176   27.026474   43.269086

 Multiplicity           Mult            ....    1
 Number of Electrons    NEL             ....  102
 Basis Dimension        Dim             ....  149

ORBITAL ENERGIES
----------------

  NO   OCC          E(Eh)            E(eV)
   0   2.0000     -19.147579      -521.0321
   1   2.0000     -19.146640      -521.0066
   2   2.0000     -19.138784      -520.7928
   3   2.0000     -19.138296      -520.7795
   4   2.0000     -10.283192      -279.8199
   5   2.0000     -10.239906      -278.6420
   6   2.0000     -10.234608      -278.4979
   7   2.0000     -10.234457      -278.4937
   8   2.0000     -10.233785      -278.4754
   9   2.0000     -10.224153      -278.2133
  10   2.0000     -10.191480      -277.3243
  11   2.0000     -10.186902      -277.1997
  12   2.0000     -10.185134      -277.1516
  13   2.0000      -1.054486       -28.6940
  14   2.0000      -1.038699       -28.2644
  15   2.0000      -1.007208       -27.4075
  16   2.0000      -0.997068       -27.1316
  17   2.0000      -0.789599       -21.4861
  18   2.0000      -0.781039       -21.2532
  19   2.0000      -0.769360       -20.9353
  20   2.0000      -0.731643       -19.9090
  21   2.0000      -0.676589       -18.4109
  22   2.0000      -0.606668       -16.5083
  23   2.0000      -0.598572       -16.2880
  24   2.0000      -0.592938       -16.1347
  25   2.0000      -0.588134       -16.0039
  26   2.0000      -0.524090       -14.2612
  27   2.0000      -0.521581       -14.1929
  28   2.0000      -0.496467       -13.5096
  29   2.0000      -0.492288       -13.3958
  30   2.0000      -0.471711       -12.8359
  31   2.0000      -0.458768       -12.4837
  32   2.0000      -0.450336       -12.2543
  33   2.0000      -0.440741       -11.9932
  34   2.0000      -0.426975       -11.6186
  35   2.0000      -0.414882       -11.2895
  36   2.0000      -0.403829       -10.9887
  37   2.0000      -0.394914       -10.7462
  38   2.0000      -0.377116       -10.2618
  39   2.0000      -0.371250       -10.1022
  40   2.0000      -0.358962        -9.7678
  41   2.0000      -0.355511        -9.6739
  42   2.0000      -0.350532        -9.5385
  43   2.0000      -0.334400        -9.0995
  44   2.0000      -0.321427        -8.7465
  45   2.0000      -0.309129        -8.4118
  46   2.0000      -0.306951        -8.3526
  47   2.0000      -0.273090        -7.4311
  48   2.0000      -0.270136        -7.3508
  49   2.0000      -0.257610        -7.0099
  50   2.0000      -0.241791        -6.5795
  51   0.0000       0.062677         1.7055
  52   0.0000       0.064768         1.7624
  53   0.0000       0.085823         2.3354
  54   0.0000       0.093715         2.5501
  55   0.0000       0.103120         2.8060

MULLIKEN ATOMIC CHARGES
-----------------------
   0 C :    0.284974
   1 C :   -0.261421
   2 C :   -0.299330
   3 C :   -0.000624
   4 O :   -0.503728
   5 H :    0.138416
   6 H :    0.144389
   7 H :    0.152584
   8 H :    0.141737
   9 H :    0.165704
  10 H :    0.151440
  11 H :    0.141063
  12 C :    0.004759
  13 H :    0.119886
  14 H :    0.162677
  15 O :   -0.526445
  16 C :    0.058068
  17 C :    0.084708
  18 C :   -0.293582
  19 C :   -0.032012
  20 O :   -0.526011
  21 H :    0.169261
  22 O :   -0.603998
  23 H :    0.164730
  24 H :    0.163219
  25 H :    0.138075
  26 H :    0.147525
  27 H :    0.149601
  28 H :    0.364334
Sum of atomic charges:   -0.0000000

LOEWDIN ATOMIC CHARGES
----------------------
   0 C :    0.174662
   1 C :   -0.219665
   2 C :   -0.215815
   3 C :   -0.026522
   4 O :   -0.321064
   5 H :    0.096026
   6 H :    0.113393
   7 H :    0.118281
   8 H :    0.114057
   9 H :    0.120893
  10 H :    0.107824
  11 H :    0.101976
  12 C :   -0.031754
  13 H :    0.091664
  14 H :    0.114010
  15 O :   -0.331997
  16 C :    0.013175
  17 C :    0.036822
  18 C :   -0.240655
  19 C :   -0.038815
  20 O :   -0.329517
  21 H :    0.119547
  22 O :   -0.414767
  23 H :    0.119627
  24 H :    0.127163
  25 H :    0.110145
  26 H :    0.104600
  27 H :    0.104058
  28 H :    0.282646

  Mayer bond orders larger than 0.100000
B(  0-C ,  1-C ) :   0.9444 B(  0-C ,  4-O ) :   0.9297 B(  0-C ,  5-H ) :   0.9181
B(  0-C , 15-O ) :   0.8460 B(  1-C ,  2-C ) :   0.9580 B(  1-C ,  6-H ) :   0.9379
B(  1-C ,  7-H ) :   0.9341 B(  2-C ,  3-C ) :   0.9540 B(  2-C ,  8-H ) :   0.9451
B(  2-C ,  9-H ) :   0.9434 B(  3-C ,  4-O ) :   0.8371 B(  3-C , 10-H ) :   0.9350
B(  3-C , 11-H ) :   0.9400 B( 12-C , 13-H ) :   0.9214 B( 12-C , 14-H ) :   0.9232
B( 12-C , 15-O ) :   0.8278 B( 12-C , 16-C ) :   0.8999 B( 16-C , 17-C ) :   0.9102
B( 16-C , 20-O ) :   0.8403 B( 16-C , 21-H ) :   0.9250 B( 17-C , 18-C ) :   0.9111
B( 17-C , 22-O ) :   0.8911 B( 17-C , 23-H ) :   0.9234 B( 18-C , 19-C ) :   0.9406
B( 18-C , 24-H ) :   0.9377 B( 18-C , 25-H ) :   0.9357 B( 19-C , 20-O ) :   0.8448
B( 19-C , 26-H ) :   0.9353 B( 19-C , 27-H ) :   0.9371 B( 22-O , 28-H ) :   0.7949

FINAL SINGLE POINT ENERGY      -652.864218516934

DIPOLE MOMENT
-------------
                                X             Y             Z
Electronic contribution:     -3.78701      -1.66313       1.26341
Nuclear contribution   :      4.43143       1.63151      -1.85391
                        -----------------------------------------
Total Dipole Moment    :      0.64441      -0.03162      -0.59050
                        -----------------------------------------
Magnitude (a.u.)       :      0.87462
Magnitude (Debye)      :      2.22310

Rotational constants in cm-1:     0.058489     0.012531     0.011657
Rotational constants in MHz :  1753.451698   375.661137   349.455013

                             ****ORCA TERMINATED NORMALLY****
TOTAL RUN TIME: 0 days 0 hours 48 minutes 36 seconds 810 msec
