                         Program Version 4.2.0 -  RELEASE  -
|  1> # Test redundant internal optimization
|  2> #
|  3> ! RKS B3LYP  Opt TightSCF SmallPrint
|  4>
|  5> %basis
|  6>         Basis "6-31G"
|  7> end
|  8>
|  9> %geom
| 10> Constraints
| 11> { D 4  0  15  12  315.0   C } # D for Dihedral angle
| 12> { D 0  15  12  16  105.0   C } # D for Dihedral angle
| 13> { D 0  4  3  2   C } # D for Dihedral angle
| 14> { D 4  3  2  1   C } # D for Dihedral angle
| 15> { D 3  2  1  0   C } # D for Dihedral angle
| 16> { D 2  1  0  4   C } # D for Dihedral angle
| 17> { D 1  0  4  3   C } # D for Dihedral angle
| 18> { D 16  20  19  18   C } # D for Dihedral angle
| 19> { D 20  19  18  17   C } # D for Dihedral angle
| 20> { D 19  18  17  16   C } # D for Dihedral angle
| 21> { D 18  17  16  20   C } # D for Dihedral angle
| 22> { D 17  16  20  19   C } # D for Dihedral angle
| 23> { D 15  12  16  20   C } # D for Dihedral angle
| 24> end
| 25> end
| 26>
| 27>
| 28> #%pal
| 29> #nprocs 8
| 30> #end
| 31>
| 32> * xyz 0 1
| 33> C  -21.048   26.222   46.251
| 34> C  -20.361   27.558   45.944
| 35> C  -20.329   28.222   47.341
| 36> C  -20.110   27.022   48.296
| 37> O  -20.473   25.807   47.535
| 38> H  -20.833   25.428   45.533
| 39> H  -19.344   27.382   45.576
| 40> H  -20.898   28.157   45.201
| 41> H  -19.543   28.978   47.434
| 42> H  -21.289   28.710   47.548
| 43> H  -20.733   27.082   49.195
| 44> H  -19.064   26.913   48.597
| 45> C  -23.319   25.255   47.135
| 46> H  -24.215   24.963   46.574
| 47> H  -22.670   24.374   47.226
| 48> O  -22.586   26.394   46.375
| 49> C  -23.753   25.671   48.568
| 50> C  -24.799   26.791   48.528
| 51> C  -26.090   26.005   48.199
| 52> C  -25.885   24.664   48.948
| 53> O  -24.439   24.561   49.238
| 54> H  -22.865   25.902   49.158
| 55> H  -24.877   27.267   49.513
| 56> O  -24.477   27.890   47.478
| 57> H  -26.997   26.526   48.518
| 58> H  -26.162   25.837   47.118
| 59> H  -26.193   23.799   48.351
| 60> H  -26.409   24.637   49.906
| 61> H  -24.395   27.435   46.485
| 62> *
| 63>
| 64>                          ****END OF INPUT****
 Total Charge           Charge          ....    0
 Multiplicity           Mult            ....    1
 Number of Electrons    NEL             ....  102
FINAL SINGLE POINT ENERGY      -652.837086537132
FINAL SINGLE POINT ENERGY      -652.862012433983
FINAL SINGLE POINT ENERGY      -652.868274348461
FINAL SINGLE POINT ENERGY      -652.870440309373
FINAL SINGLE POINT ENERGY      -652.871591191651
FINAL SINGLE POINT ENERGY      -652.872073856236
FINAL SINGLE POINT ENERGY      -652.872191330339
FINAL SINGLE POINT ENERGY      -652.872214811869
                    ***********************HURRAY********************

CARTESIAN COORDINATES (ANGSTROEM)
---------------------------------
  C    -21.079388   26.140518   46.284532
  C    -20.550860   27.541308   45.978509
  C    -20.564513   28.194833   47.378167
  C    -20.198829   27.029495   48.320939
  O    -20.450271   25.783600   47.533331
  H    -20.813028   25.352157   45.575291
  H    -19.531246   27.458564   45.586087
  H    -21.169127   28.068918   45.249011
  H    -19.861532   29.029070   47.458126
  H    -21.569800   28.566562   47.601093
  H    -20.804918   27.000717   49.229276
  H    -19.139911   27.008919   48.591822
  C    -23.237887   25.153521   47.096456
  H    -24.087457   24.875886   46.465270
  H    -22.589517   24.283490   47.231224
  O    -22.525964   26.225187   46.381596
  C    -23.691252   25.660843   48.469208
  C    -24.695877   26.824409   48.438158
  C    -26.031001   26.080841   48.155575
  C    -25.861935   24.749814   48.916928
  O    -24.398128   24.591529   49.173535
  H    -22.806118   25.890758   49.067208
  H    -24.740371   27.279260   49.433430
  O    -24.387128   27.888478   47.512031
  H    -26.896249   26.656410   48.495678
  H    -26.136946   25.926888   47.075786
  H    -26.216338   23.879995   48.354906
  H    -26.350293   24.759431   49.895397
  H    -23.770115   27.550601   46.820430

 Multiplicity           Mult            ....    1
 Number of Electrons    NEL             ....  102
 Basis Dimension        Dim             ....  149

ORBITAL ENERGIES
----------------

  NO   OCC          E(Eh)            E(eV)
   0   2.0000     -19.162027      -521.4253
   1   2.0000     -19.154103      -521.2096
   2   2.0000     -19.138698      -520.7904
   3   2.0000     -19.119583      -520.2703
   4   2.0000     -10.290787      -280.0266
   5   2.0000     -10.234256      -278.4883
   6   2.0000     -10.233614      -278.4708
   7   2.0000     -10.231880      -278.4236
   8   2.0000     -10.230592      -278.3886
   9   2.0000     -10.226334      -278.2727
  10   2.0000     -10.193528      -277.3800
  11   2.0000     -10.190393      -277.2947
  12   2.0000     -10.180500      -277.0255
  13   2.0000      -1.066257       -29.0143
  14   2.0000      -1.024088       -27.8669
  15   2.0000      -1.005741       -27.3676
  16   2.0000      -0.994972       -27.0746
  17   2.0000      -0.797201       -21.6929
  18   2.0000      -0.772850       -21.0303
  19   2.0000      -0.767654       -20.8889
  20   2.0000      -0.735114       -20.0035
  21   2.0000      -0.678752       -18.4698
  22   2.0000      -0.606154       -16.4943
  23   2.0000      -0.598084       -16.2747
  24   2.0000      -0.596179       -16.2229
  25   2.0000      -0.582119       -15.8403
  26   2.0000      -0.528278       -14.3752
  27   2.0000      -0.518064       -14.0972
  28   2.0000      -0.499769       -13.5994
  29   2.0000      -0.486611       -13.2413
  30   2.0000      -0.475506       -12.9392
  31   2.0000      -0.460087       -12.5196
  32   2.0000      -0.443936       -12.0801
  33   2.0000      -0.429513       -11.6876
  34   2.0000      -0.423846       -11.5334
  35   2.0000      -0.415238       -11.2992
  36   2.0000      -0.408900       -11.1267
  37   2.0000      -0.390855       -10.6357
  38   2.0000      -0.381049       -10.3689
  39   2.0000      -0.367591       -10.0027
  40   2.0000      -0.365287        -9.9400
  41   2.0000      -0.357204        -9.7200
  42   2.0000      -0.351392        -9.5619
  43   2.0000      -0.344426        -9.3723
  44   2.0000      -0.329280        -8.9602
  45   2.0000      -0.312758        -8.5106
  46   2.0000      -0.292917        -7.9707
  47   2.0000      -0.280367        -7.6292
  48   2.0000      -0.268611        -7.3093
  49   2.0000      -0.251694        -6.8490
  50   2.0000      -0.239878        -6.5274
  51   0.0000       0.058525         1.5926
  52   0.0000       0.077866         2.1188
  53   0.0000       0.091607         2.4927
  54   0.0000       0.097379         2.6498
  55   0.0000       0.105469         2.8700

MULLIKEN ATOMIC CHARGES
-----------------------
   0 C :    0.299068
   1 C :   -0.267887
   2 C :   -0.309172
   3 C :   -0.018361
   4 O :   -0.509655
   5 H :    0.157095
   6 H :    0.151319
   7 H :    0.161695
   8 H :    0.147141
   9 H :    0.170943
  10 H :    0.153213
  11 H :    0.151726
  12 C :   -0.035494
  13 H :    0.151692
  14 H :    0.177223
  15 O :   -0.561884
  16 C :    0.052967
  17 C :    0.116040
  18 C :   -0.308212
  19 C :   -0.017872
  20 O :   -0.519370
  21 H :    0.164781
  22 H :    0.148228
  23 O :   -0.640312
  24 H :    0.150950
  25 H :    0.147940
  26 H :    0.141107
  27 H :    0.149303
  28 H :    0.395787
Sum of atomic charges:   -0.0000000

LOEWDIN ATOMIC CHARGES
----------------------
   0 C :    0.178670
   1 C :   -0.215348
   2 C :   -0.220319
   3 C :   -0.030379
   4 O :   -0.324580
   5 H :    0.103247
   6 H :    0.117596
   7 H :    0.125852
   8 H :    0.117723
   9 H :    0.122608
  10 H :    0.105509
  11 H :    0.107631
  12 C :   -0.047902
  13 H :    0.108449
  14 H :    0.124440
  15 O :   -0.343014
  16 C :    0.010586
  17 C :    0.040231
  18 C :   -0.239182
  19 C :   -0.031410
  20 O :   -0.323369
  21 H :    0.115465
  22 H :    0.106260
  23 O :   -0.434433
  24 H :    0.120858
  25 H :    0.112012
  26 H :    0.101617
  27 H :    0.105954
  28 H :    0.285228

  Mayer bond orders larger than 0.100000
B(  0-C ,  1-C ) :   0.9494 B(  0-C ,  4-O ) :   0.9175 B(  0-C ,  5-H ) :   0.9231
B(  0-C , 15-O ) :   0.8167 B(  1-C ,  2-C ) :   0.9520 B(  1-C ,  6-H ) :   0.9384
B(  1-C ,  7-H ) :   0.9352 B(  2-C ,  3-C ) :   0.9538 B(  2-C ,  8-H ) :   0.9438
B(  2-C ,  9-H ) :   0.9314 B(  3-C ,  4-O ) :   0.8257 B(  3-C , 10-H ) :   0.9288
B(  3-C , 11-H ) :   0.9405 B( 12-C , 13-H ) :   0.9347 B( 12-C , 14-H ) :   0.9234
B( 12-C , 15-O ) :   0.7832 B( 12-C , 16-C ) :   0.8959 B( 16-C , 17-C ) :   0.9110
B( 16-C , 20-O ) :   0.8521 B( 16-C , 21-H ) :   0.9221 B( 17-C , 18-C ) :   0.9027
B( 17-C , 22-H ) :   0.9330 B( 17-C , 23-O ) :   0.9277 B( 18-C , 19-C ) :   0.9391
B( 18-C , 24-H ) :   0.9448 B( 18-C , 25-H ) :   0.9434 B( 19-C , 20-O ) :   0.8340
B( 19-C , 26-H ) :   0.9345 B( 19-C , 27-H ) :   0.9384 B( 23-O , 28-H ) :   0.7195

FINAL SINGLE POINT ENERGY      -652.872216733342

DIPOLE MOMENT
-------------
                                X             Y             Z
Electronic contribution:      0.38697      -2.49830      -0.02268
Nuclear contribution   :     -0.04790       2.64114      -0.41336
                        -----------------------------------------
Total Dipole Moment    :      0.33907       0.14283      -0.43604
                        -----------------------------------------
Magnitude (a.u.)       :      0.57053
Magnitude (Debye)      :      1.45017

Rotational constants in cm-1:     0.052988     0.016007     0.014869
Rotational constants in MHz :  1588.542448   479.870988   445.758376

                             ****ORCA TERMINATED NORMALLY****
TOTAL RUN TIME: 0 days 0 hours 25 minutes 2 seconds 608 msec
