                         Program Version 4.2.0 -  RELEASE  -
|  1> # Test redundant internal optimization
|  2> #
|  3> ! RKS B3LYP  Opt TightSCF SmallPrint
|  4>
|  5> %basis
|  6>         Basis "6-31G"
|  7> end
|  8>
|  9> %geom
| 10> Constraints
| 11> { D 4  0  15  12  330.0   C } # D for Dihedral angle
| 12> { D 0  15  12  16  255.0   C } # D for Dihedral angle
| 13> { D 0  4  3  2   C } # D for Dihedral angle
| 14> { D 4  3  2  1   C } # D for Dihedral angle
| 15> { D 3  2  1  0   C } # D for Dihedral angle
| 16> { D 2  1  0  4   C } # D for Dihedral angle
| 17> { D 1  0  4  3   C } # D for Dihedral angle
| 18> { D 16  20  19  18   C } # D for Dihedral angle
| 19> { D 20  19  18  17   C } # D for Dihedral angle
| 20> { D 19  18  17  16   C } # D for Dihedral angle
| 21> { D 18  17  16  20   C } # D for Dihedral angle
| 22> { D 17  16  20  19   C } # D for Dihedral angle
| 23> { D 15  12  16  20   C } # D for Dihedral angle
| 24> end
| 25> end
| 26>
| 27>
| 28> #%pal
| 29> #nprocs 8
| 30> #end
| 31>
| 32> * xyz 0 1
| 33> C  -21.048   26.222   46.251
| 34> C  -20.361   27.558   45.944
| 35> C  -20.329   28.222   47.341
| 36> C  -20.110   27.022   48.296
| 37> O  -20.473   25.807   47.535
| 38> H  -20.833   25.428   45.533
| 39> H  -19.344   27.382   45.576
| 40> H  -20.898   28.157   45.201
| 41> H  -19.543   28.978   47.434
| 42> H  -21.289   28.710   47.548
| 43> H  -20.733   27.082   49.195
| 44> H  -19.064   26.913   48.597
| 45> C  -23.271   25.476   47.424
| 46> H  -22.507   25.056   48.091
| 47> H  -23.980   26.051   48.033
| 48> O  -22.586   26.394   46.375
| 49> C  -24.051   24.300   46.774
| 50> C  -25.080   24.808   45.757
| 51> C  -24.187   25.098   44.527
| 52> C  -23.113   23.984   44.601
| 53> O  -23.147   23.459   45.984
| 54> H  -24.469   23.669   47.561
| 55> H  -25.806   24.020   45.531
| 56> O  -25.854   26.062   46.247
| 57> H  -24.743   25.079   43.584
| 58> H  -23.723   26.087   44.622
| 59> H  -22.107   24.355   44.382
| 60> H  -23.334   23.146   43.934
| 61> H  -25.146   26.865   46.480
| 62> *
| 63>
| 64>                          ****END OF INPUT****
 Total Charge           Charge          ....    0
 Multiplicity           Mult            ....    1
 Number of Electrons    NEL             ....  102
FINAL SINGLE POINT ENERGY      -652.834753801856
FINAL SINGLE POINT ENERGY      -652.858170128552
FINAL SINGLE POINT ENERGY      -652.862698342863
FINAL SINGLE POINT ENERGY      -652.865016815595
FINAL SINGLE POINT ENERGY      -652.865216069241
FINAL SINGLE POINT ENERGY      -652.865250551879
FINAL SINGLE POINT ENERGY      -652.865253109082
                    ***********************HURRAY********************

CARTESIAN COORDINATES (ANGSTROEM)
---------------------------------
  C    -21.013448   26.230216   46.317273
  C    -20.408866   27.604477   46.034762
  C    -20.348543   28.219447   47.450742
  C    -20.031102   27.007282   48.351125
  O    -20.376454   25.803511   47.538767
  H    -20.801135   25.450171   45.582850
  H    -19.405275   27.476590   45.613353
  H    -21.016176   28.187316   45.338698
  H    -19.593530   29.006985   47.535374
  H    -21.322364   28.647387   47.706976
  H    -20.615312   26.986959   49.274558
  H    -18.968619   26.918657   48.593299
  C    -23.165312   25.544225   47.402620
  H    -22.438230   25.120464   48.100336
  H    -23.856862   26.194287   47.950064
  O    -22.460951   26.393743   46.440017
  C    -23.956838   24.416422   46.746153
  C    -25.064898   24.854761   45.771116
  C    -24.271406   25.022630   44.438796
  C    -23.215303   23.900555   44.530549
  O    -23.140228   23.498882   45.959229
  H    -24.379307   23.817799   47.563474
  H    -25.818879   24.069267   45.685989
  O    -25.797350   26.032644   46.185078
  H    -24.915157   24.926249   43.559735
  H    -23.796397   26.007084   44.433521
  H    -22.223690   24.222564   44.197976
  H    -23.502705   23.007212   43.966984
  H    -25.224664   26.822214   46.088588

 Multiplicity           Mult            ....    1
 Number of Electrons    NEL             ....  102
 Basis Dimension        Dim             ....  149

ORBITAL ENERGIES
----------------

  NO   OCC          E(Eh)            E(eV)
   0   2.0000     -19.151757      -521.1458
   1   2.0000     -19.145750      -520.9823
   2   2.0000     -19.137789      -520.7657
   3   2.0000     -19.133292      -520.6433
   4   2.0000     -10.282233      -279.7938
   5   2.0000     -10.233743      -278.4743
   6   2.0000     -10.233028      -278.4548
   7   2.0000     -10.224455      -278.2216
   8   2.0000     -10.223051      -278.1834
   9   2.0000     -10.221847      -278.1506
  10   2.0000     -10.191757      -277.3318
  11   2.0000     -10.190009      -277.2842
  12   2.0000     -10.179171      -276.9893
  13   2.0000      -1.057913       -28.7873
  14   2.0000      -1.025092       -27.8942
  15   2.0000      -1.007719       -27.4214
  16   2.0000      -0.992919       -27.0187
  17   2.0000      -0.794371       -21.6159
  18   2.0000      -0.769996       -20.9526
  19   2.0000      -0.764480       -20.8025
  20   2.0000      -0.733955       -19.9719
  21   2.0000      -0.674535       -18.3550
  22   2.0000      -0.605989       -16.4898
  23   2.0000      -0.600609       -16.3434
  24   2.0000      -0.598072       -16.2744
  25   2.0000      -0.560730       -15.2582
  26   2.0000      -0.527525       -14.3547
  27   2.0000      -0.508953       -13.8493
  28   2.0000      -0.495000       -13.4696
  29   2.0000      -0.491689       -13.3795
  30   2.0000      -0.465665       -12.6714
  31   2.0000      -0.462299       -12.5798
  32   2.0000      -0.438796       -11.9403
  33   2.0000      -0.433014       -11.7829
  34   2.0000      -0.422519       -11.4973
  35   2.0000      -0.412928       -11.2363
  36   2.0000      -0.401310       -10.9202
  37   2.0000      -0.391261       -10.6467
  38   2.0000      -0.379221       -10.3191
  39   2.0000      -0.368922       -10.0389
  40   2.0000      -0.362199        -9.8559
  41   2.0000      -0.355315        -9.6686
  42   2.0000      -0.348867        -9.4931
  43   2.0000      -0.335286        -9.1236
  44   2.0000      -0.323053        -8.7907
  45   2.0000      -0.307100        -8.3566
  46   2.0000      -0.299146        -8.1402
  47   2.0000      -0.269934        -7.3453
  48   2.0000      -0.267620        -7.2823
  49   2.0000      -0.257911        -7.0181
  50   2.0000      -0.233468        -6.3530
  51   0.0000       0.069508         1.8914
  52   0.0000       0.079080         2.1519
  53   0.0000       0.093231         2.5370
  54   0.0000       0.100929         2.7464
  55   0.0000       0.106282         2.8921

MULLIKEN ATOMIC CHARGES
-----------------------
   0 C :    0.301975
   1 C :   -0.261682
   2 C :   -0.300525
   3 C :   -0.014147
   4 O :   -0.506704
   5 H :    0.160949
   6 H :    0.146969
   7 H :    0.155684
   8 H :    0.146166
   9 H :    0.157618
  10 H :    0.147952
  11 H :    0.151210
  12 C :   -0.051414
  13 H :    0.182596
  14 H :    0.141774
  15 O :   -0.551495
  16 C :    0.100533
  17 C :    0.087574
  18 C :   -0.308016
  19 C :   -0.009764
  20 O :   -0.521044
  21 H :    0.145397
  22 H :    0.161920
  23 O :   -0.608549
  24 H :    0.142967
  25 H :    0.157547
  26 H :    0.134980
  27 H :    0.144393
  28 H :    0.365139
Sum of atomic charges:   -0.0000000

LOEWDIN ATOMIC CHARGES
----------------------
   0 C :    0.181723
   1 C :   -0.217121
   2 C :   -0.216918
   3 C :   -0.030328
   4 O :   -0.314219
   5 H :    0.103078
   6 H :    0.114964
   7 H :    0.123439
   8 H :    0.116365
   9 H :    0.116848
  10 H :    0.105303
  11 H :    0.107521
  12 C :   -0.058155
  13 H :    0.124649
  14 H :    0.107428
  15 O :   -0.351716
  16 C :    0.012279
  17 C :    0.035975
  18 C :   -0.242118
  19 C :   -0.026652
  20 O :   -0.323864
  21 H :    0.112816
  22 H :    0.115919
  23 O :   -0.411761
  24 H :    0.114803
  25 H :    0.117990
  26 H :    0.096529
  27 H :    0.102141
  28 H :    0.283082

  Mayer bond orders larger than 0.100000
B(  0-C ,  1-C ) :   0.9422 B(  0-C ,  4-O ) :   0.9110 B(  0-C ,  5-H ) :   0.9162
B(  0-C , 15-O ) :   0.8284 B(  1-C ,  2-C ) :   0.9534 B(  1-C ,  6-H ) :   0.9372
B(  1-C ,  7-H ) :   0.9361 B(  2-C ,  3-C ) :   0.9553 B(  2-C ,  8-H ) :   0.9447
B(  2-C ,  9-H ) :   0.9451 B(  3-C ,  4-O ) :   0.8285 B(  3-C , 10-H ) :   0.9350
B(  3-C , 11-H ) :   0.9404 B( 12-C , 13-H ) :   0.9066 B( 12-C , 14-H ) :   0.9200
B( 12-C , 15-O ) :   0.8423 B( 12-C , 16-C ) :   0.8980 B( 16-C , 17-C ) :   0.8880
B( 16-C , 20-O ) :   0.8735 B( 16-C , 21-H ) :   0.9241 B( 17-C , 18-C ) :   0.9309
B( 17-C , 22-H ) :   0.9359 B( 17-C , 23-O ) :   0.9003 B( 18-C , 19-C ) :   0.9434
B( 18-C , 24-H ) :   0.9417 B( 18-C , 25-H ) :   0.9295 B( 19-C , 20-O ) :   0.8433
B( 19-C , 26-H ) :   0.9277 B( 19-C , 27-H ) :   0.9382 B( 23-O , 28-H ) :   0.7930

FINAL SINGLE POINT ENERGY      -652.865252128487

DIPOLE MOMENT
-------------
                                X             Y             Z
Electronic contribution:     -2.36754      -3.69945       0.92348
Nuclear contribution   :      3.08170       4.76816      -1.16283
                        -----------------------------------------
Total Dipole Moment    :      0.71417       1.06871      -0.23934
                        -----------------------------------------
Magnitude (a.u.)       :      1.30747
Magnitude (Debye)      :      3.32331

Rotational constants in cm-1:     0.050539     0.015503     0.014756
Rotational constants in MHz :  1515.124876   464.776636   442.360891

                             ****ORCA TERMINATED NORMALLY****
TOTAL RUN TIME: 0 days 0 hours 43 minutes 44 seconds 139 msec
