                         Program Version 4.2.0 -  RELEASE  -
|  1> # Test redundant internal optimization
|  2> #
|  3> ! RKS B3LYP  Opt TightSCF SmallPrint
|  4>
|  5> %basis
|  6>         Basis "6-31G"
|  7> end
|  8>
|  9> %geom
| 10> Constraints
| 11> { D 4  0  15  12  120.0   C } # D for Dihedral angle
| 12> { D 0  15  12  16  120.0   C } # D for Dihedral angle
| 13> { D 0  4  3  2   C } # D for Dihedral angle
| 14> { D 4  3  2  1   C } # D for Dihedral angle
| 15> { D 3  2  1  0   C } # D for Dihedral angle
| 16> { D 2  1  0  4   C } # D for Dihedral angle
| 17> { D 1  0  4  3   C } # D for Dihedral angle
| 18> { D 16  20  19  18   C } # D for Dihedral angle
| 19> { D 20  19  18  17   C } # D for Dihedral angle
| 20> { D 19  18  17  16   C } # D for Dihedral angle
| 21> { D 18  17  16  20   C } # D for Dihedral angle
| 22> { D 17  16  20  19   C } # D for Dihedral angle
| 23> { D 15  12  16  20   C } # D for Dihedral angle
| 24> end
| 25> end
| 26>
| 27>
| 28> #%pal
| 29> #nprocs 8
| 30> #end
| 31>
| 32> * xyz 0 1
| 33> C  -21.048   26.222   46.251
| 34> C  -20.361   27.558   45.944
| 35> C  -20.329   28.222   47.341
| 36> C  -20.110   27.022   48.296
| 37> O  -20.473   25.807   47.535
| 38> H  -20.833   25.428   45.533
| 39> H  -19.344   27.382   45.576
| 40> H  -20.898   28.157   45.201
| 41> H  -19.543   28.978   47.434
| 42> H  -21.289   28.710   47.548
| 43> H  -20.733   27.082   49.195
| 44> H  -19.064   26.913   48.597
| 45> C  -23.119   27.818   46.058
| 46> H  -23.624   28.221   46.944
| 47> H  -22.290   28.490   45.800
| 48> O  -22.586   26.394   46.375
| 49> C  -24.125   27.833   44.874
| 50> C  -23.517   27.198   43.618
| 51> C  -23.665   25.689   43.926
| 52> C  -25.003   25.619   44.704
| 53> O  -25.287   26.991   45.178
| 54> H  -24.496   28.850   44.732
| 55> H  -24.106   27.472   42.736
| 56> O  -22.042   27.620   43.373
| 57> H  -23.674   25.070   43.024
| 58> H  -22.834   25.350   44.556
| 59> H  -24.953   24.944   45.566
| 60> H  -25.841   25.318   44.068
| 61> H  -21.434   27.355   44.245
| 62> *
| 63>
| 64>                          ****END OF INPUT****
 Total Charge           Charge          ....    0
 Multiplicity           Mult            ....    1
 Number of Electrons    NEL             ....  102
FINAL SINGLE POINT ENERGY      -652.799614430895
FINAL SINGLE POINT ENERGY      -652.833101601831
FINAL SINGLE POINT ENERGY      -652.845699264290
FINAL SINGLE POINT ENERGY      -652.848480058949
FINAL SINGLE POINT ENERGY      -652.849381374903
FINAL SINGLE POINT ENERGY      -652.849642859210
FINAL SINGLE POINT ENERGY      -652.849773069670
FINAL SINGLE POINT ENERGY      -652.849920520676
FINAL SINGLE POINT ENERGY      -652.849990461044
FINAL SINGLE POINT ENERGY      -652.850095717170
FINAL SINGLE POINT ENERGY      -652.850328725518
FINAL SINGLE POINT ENERGY      -652.850328730611
FINAL SINGLE POINT ENERGY      -652.850328577253
FINAL SINGLE POINT ENERGY      -652.850328843665
FINAL SINGLE POINT ENERGY      -652.850328907123
FINAL SINGLE POINT ENERGY      -652.850328909074
FINAL SINGLE POINT ENERGY      -652.850328912925
FINAL SINGLE POINT ENERGY      -652.850328833214
FINAL SINGLE POINT ENERGY      -652.850328832932
                    ***********************HURRAY********************

CARTESIAN COORDINATES (ANGSTROEM)
---------------------------------
  C    -21.123512   26.318192   46.425282
  C    -20.223759   27.497194   46.042621
  C    -20.106358   28.265301   47.387553
  C    -20.103653   27.120502   48.428416
  O    -20.650264   25.933099   47.732216
  H    -20.997805   25.434058   45.796268
  H    -19.244931   27.087546   45.767931
  H    -20.595457   28.090886   45.205182
  H    -19.199058   28.874857   47.436395
  H    -20.964414   28.928196   47.537021
  H    -20.725204   27.335396   49.302144
  H    -19.095521   26.857463   48.761947
  C    -23.184146   27.833009   46.137845
  H    -23.743582   28.148390   47.025502
  H    -22.446849   28.600095   45.889541
  O    -22.558774   26.557585   46.469212
  C    -24.167195   27.732567   44.972272
  C    -23.603908   27.261378   43.623603
  C    -23.668942   25.713685   43.770024
  C    -24.956976   25.509200   44.602247
  O    -25.264021   26.811355   45.233444
  H    -24.623729   28.726257   44.875442
  H    -24.287272   27.592753   42.832393
  O    -22.284348   27.809704   43.346058
  H    -23.686282   25.189221   42.810048
  H    -22.805021   25.383180   44.351979
  H    -24.830829   24.754265   45.381870
  H    -25.818386   25.250219   43.978006
  H    -21.660801   27.097446   43.105537

 Multiplicity           Mult            ....    1
 Number of Electrons    NEL             ....  102
 Basis Dimension        Dim             ....  149

ORBITAL ENERGIES
----------------

  NO   OCC          E(Eh)            E(eV)
   0   2.0000     -19.153192      -521.1849
   1   2.0000     -19.137270      -520.7516
   2   2.0000     -19.135968      -520.7162
   3   2.0000     -19.133135      -520.6391
   4   2.0000     -10.280111      -279.7360
   5   2.0000     -10.244332      -278.7624
   6   2.0000     -10.229917      -278.3702
   7   2.0000     -10.225314      -278.2449
   8   2.0000     -10.224938      -278.2347
   9   2.0000     -10.223918      -278.2070
  10   2.0000     -10.191153      -277.3154
  11   2.0000     -10.189962      -277.2830
  12   2.0000     -10.189551      -277.2718
  13   2.0000      -1.047446       -28.5024
  14   2.0000      -1.032987       -28.1090
  15   2.0000      -1.014939       -27.6179
  16   2.0000      -0.988224       -26.8910
  17   2.0000      -0.787738       -21.4354
  18   2.0000      -0.778849       -21.1936
  19   2.0000      -0.768980       -20.9250
  20   2.0000      -0.732891       -19.9430
  21   2.0000      -0.680645       -18.5213
  22   2.0000      -0.610319       -16.6076
  23   2.0000      -0.602837       -16.4040
  24   2.0000      -0.597682       -16.2637
  25   2.0000      -0.555697       -15.1213
  26   2.0000      -0.521009       -14.1774
  27   2.0000      -0.509470       -13.8634
  28   2.0000      -0.509040       -13.8517
  29   2.0000      -0.498318       -13.5599
  30   2.0000      -0.464407       -12.6372
  31   2.0000      -0.452062       -12.3012
  32   2.0000      -0.443069       -12.0565
  33   2.0000      -0.438106       -11.9215
  34   2.0000      -0.428477       -11.6595
  35   2.0000      -0.415113       -11.2958
  36   2.0000      -0.411133       -11.1875
  37   2.0000      -0.396082       -10.7779
  38   2.0000      -0.380050       -10.3417
  39   2.0000      -0.368760       -10.0345
  40   2.0000      -0.362792        -9.8721
  41   2.0000      -0.359268        -9.7762
  42   2.0000      -0.346674        -9.4335
  43   2.0000      -0.329366        -8.9625
  44   2.0000      -0.313074        -8.5192
  45   2.0000      -0.305689        -8.3182
  46   2.0000      -0.290276        -7.8988
  47   2.0000      -0.275714        -7.5026
  48   2.0000      -0.264796        -7.2055
  49   2.0000      -0.253729        -6.9043
  50   2.0000      -0.232865        -6.3366
  51   0.0000       0.049300         1.3415
  52   0.0000       0.075868         2.0645
  53   0.0000       0.089410         2.4330
  54   0.0000       0.095743         2.6053
  55   0.0000       0.109720         2.9856

MULLIKEN ATOMIC CHARGES
-----------------------
   0 C :    0.325763
   1 C :   -0.327498
   2 C :   -0.304554
   3 C :   -0.003825
   4 O :   -0.499498
   5 H :    0.139499
   6 H :    0.149934
   7 H :    0.174456
   8 H :    0.144894
   9 H :    0.152501
  10 H :    0.149998
  11 H :    0.142630
  12 C :   -0.001126
  13 H :    0.156225
  14 H :    0.144963
  15 O :   -0.536491
  16 C :    0.098499
  17 C :    0.094812
  18 C :   -0.339928
  19 C :    0.006734
  20 O :   -0.519006
  21 H :    0.144886
  22 H :    0.151191
  23 O :   -0.618556
  24 H :    0.140669
  25 H :    0.166372
  26 H :    0.160731
  27 H :    0.138885
  28 H :    0.366841
Sum of atomic charges:   -0.0000000

LOEWDIN ATOMIC CHARGES
----------------------
   0 C :    0.179566
   1 C :   -0.243130
   2 C :   -0.219791
   3 C :   -0.029228
   4 O :   -0.314024
   5 H :    0.094961
   6 H :    0.119724
   7 H :    0.126008
   8 H :    0.115849
   9 H :    0.110759
  10 H :    0.106320
  11 H :    0.102783
  12 C :   -0.038401
  13 H :    0.112809
  14 H :    0.107963
  15 O :   -0.333788
  16 C :    0.023012
  17 C :    0.035470
  18 C :   -0.246043
  19 C :   -0.019625
  20 O :   -0.318580
  21 H :    0.112039
  22 H :    0.105410
  23 O :   -0.419490
  24 H :    0.112018
  25 H :    0.120127
  26 H :    0.112834
  27 H :    0.099556
  28 H :    0.284892

  Mayer bond orders larger than 0.100000
B(  0-C ,  1-C ) :   0.9323 B(  0-C ,  4-O ) :   0.9140 B(  0-C ,  5-H ) :   0.9280
B(  0-C , 15-O ) :   0.8649 B(  1-C ,  2-C ) :   0.9505 B(  1-C ,  6-H ) :   0.9336
B(  1-C ,  7-H ) :   0.9079 B(  2-C ,  3-C ) :   0.9484 B(  2-C ,  8-H ) :   0.9459
B(  2-C ,  9-H ) :   0.9414 B(  3-C ,  4-O ) :   0.8450 B(  3-C , 10-H ) :   0.9344
B(  3-C , 11-H ) :   0.9396 B( 12-C , 13-H ) :   0.9280 B( 12-C , 14-H ) :   0.8961
B( 12-C , 15-O ) :   0.8514 B( 12-C , 16-C ) :   0.9057 B( 16-C , 17-C ) :   0.9006
B( 16-C , 20-O ) :   0.8780 B( 16-C , 21-H ) :   0.9252 B( 17-C , 18-C ) :   0.9441
B( 17-C , 22-H ) :   0.9269 B( 17-C , 23-O ) :   0.8702 B( 18-C , 19-C ) :   0.9476
B( 18-C , 24-H ) :   0.9381 B( 18-C , 25-H ) :   0.9217 B( 19-C , 20-O ) :   0.8447
B( 19-C , 26-H ) :   0.9296 B( 19-C , 27-H ) :   0.9372 B( 23-O , 28-H ) :   0.7970

FINAL SINGLE POINT ENERGY      -652.850328900333

DIPOLE MOMENT
-------------
                                X             Y             Z
Electronic contribution:     -3.22765      -1.70180       0.18707
Nuclear contribution   :      4.17270       2.04106      -1.04218
                        -----------------------------------------
Total Dipole Moment    :      0.94505       0.33926      -0.85511
                        -----------------------------------------
Magnitude (a.u.)       :      1.31887
Magnitude (Debye)      :      3.35231

Rotational constants in cm-1:     0.050730     0.016196     0.014989
Rotational constants in MHz :  1520.858269   485.556001   449.349864

                             ****ORCA TERMINATED NORMALLY****
TOTAL RUN TIME: 0 days 2 hours 8 minutes 41 seconds 191 msec
