                         Program Version 4.2.0 -  RELEASE  -
|  1> # Test redundant internal optimization
|  2> #
|  3> ! RKS B3LYP  Opt TightSCF SmallPrint
|  4>
|  5> %basis
|  6>         Basis "6-31G"
|  7> end
|  8>
|  9> %geom
| 10> Constraints
| 11> { D 4  0  15  12  285.0   C } # D for Dihedral angle
| 12> { D 0  15  12  16  210.0   C } # D for Dihedral angle
| 13> { D 0  4  3  2   C } # D for Dihedral angle
| 14> { D 4  3  2  1   C } # D for Dihedral angle
| 15> { D 3  2  1  0   C } # D for Dihedral angle
| 16> { D 2  1  0  4   C } # D for Dihedral angle
| 17> { D 1  0  4  3   C } # D for Dihedral angle
| 18> { D 16  20  19  18   C } # D for Dihedral angle
| 19> { D 20  19  18  17   C } # D for Dihedral angle
| 20> { D 19  18  17  16   C } # D for Dihedral angle
| 21> { D 18  17  16  20   C } # D for Dihedral angle
| 22> { D 17  16  20  19   C } # D for Dihedral angle
| 23> { D 15  12  16  20   C } # D for Dihedral angle
| 24> end
| 25> end
| 26>
| 27>
| 28> #%pal
| 29> #nprocs 8
| 30> #end
| 31>
| 32> * xyz 0 1
| 33> C  -21.048   26.222   46.251
| 34> C  -20.361   27.558   45.944
| 35> C  -20.329   28.222   47.341
| 36> C  -20.110   27.022   48.296
| 37> O  -20.473   25.807   47.535
| 38> H  -20.833   25.428   45.533
| 39> H  -19.344   27.382   45.576
| 40> H  -20.898   28.157   45.201
| 41> H  -19.543   28.978   47.434
| 42> H  -21.289   28.710   47.548
| 43> H  -20.733   27.082   49.195
| 44> H  -19.064   26.913   48.597
| 45> C  -23.396   25.070   46.435
| 46> H  -22.860   24.292   45.878
| 47> H  -23.505   24.734   47.474
| 48> O  -22.586   26.394   46.375
| 49> C  -24.821   25.209   45.831
| 50> C  -24.761   25.513   44.330
| 51> C  -24.480   24.112   43.737
| 52> C  -25.270   23.167   44.678
| 53> O  -25.539   23.933   45.914
| 54> H  -25.388   25.934   46.417
| 55> O  -26.134   26.050   43.841
| 56> H  -23.992   26.248   44.069
| 57> H  -24.796   24.021   42.694
| 58> H  -23.406   23.893   43.782
| 59> H  -24.708   22.263   44.933
| 60> H  -26.237   22.876   44.261
| 61> H  -26.922   25.329   44.091
| 62> *
| 63>
| 64>                          ****END OF INPUT****
 Total Charge           Charge          ....    0
 Multiplicity           Mult            ....    1
 Number of Electrons    NEL             ....  102
FINAL SINGLE POINT ENERGY      -652.840218701702
FINAL SINGLE POINT ENERGY      -652.864250982293
FINAL SINGLE POINT ENERGY      -652.868199099121
FINAL SINGLE POINT ENERGY      -652.868879491437
FINAL SINGLE POINT ENERGY      -652.868968902629
FINAL SINGLE POINT ENERGY      -652.868980119653
FINAL SINGLE POINT ENERGY      -652.868982138225
                    ***********************HURRAY********************

CARTESIAN COORDINATES (ANGSTROEM)
---------------------------------
  C    -21.095605   26.111836   46.249718
  C    -20.526815   27.488736   45.906178
  C    -20.531181   28.186277   47.285971
  C    -20.202576   27.034118   48.261643
  O    -20.480532   25.779130   47.516619
  H    -20.839770   25.297343   45.563128
  H    -19.505493   27.371219   45.526697
  H    -21.128232   28.008760   45.157786
  H    -19.804946   29.002521   47.347685
  H    -21.526785   28.591317   47.488052
  H    -20.815202   27.050027   49.166466
  H    -19.145514   27.002235   48.542028
  C    -23.284285   25.008292   46.472488
  H    -22.749822   24.192195   45.965277
  H    -23.400710   24.731772   47.524882
  O    -22.525863   26.248541   46.352691
  C    -24.656271   25.230959   45.836812
  C    -24.633929   25.539659   44.332942
  C    -24.456028   24.124753   43.724490
  C    -25.263776   23.221476   44.690251
  O    -25.443600   23.997552   45.942867
  H    -25.195486   26.008762   46.384310
  O    -25.884659   26.151156   43.911000
  H    -23.851790   26.243264   44.054528
  H    -24.832598   24.095951   42.699107
  H    -23.396833   23.845122   43.709551
  H    -24.752440   22.282929   44.924721
  H    -26.263229   22.988178   44.310981
  H    -26.632029   25.684922   44.342133

 Multiplicity           Mult            ....    1
 Number of Electrons    NEL             ....  102
 Basis Dimension        Dim             ....  149

ORBITAL ENERGIES
----------------

  NO   OCC          E(Eh)            E(eV)
   0   2.0000     -19.149305      -521.0791
   1   2.0000     -19.145216      -520.9678
   2   2.0000     -19.140379      -520.8362
   3   2.0000     -19.136286      -520.7248
   4   2.0000     -10.281871      -279.7839
   5   2.0000     -10.236816      -278.5579
   6   2.0000     -10.232885      -278.4510
   7   2.0000     -10.232335      -278.4360
   8   2.0000     -10.230162      -278.3769
   9   2.0000     -10.225315      -278.2450
  10   2.0000     -10.189046      -277.2580
  11   2.0000     -10.186633      -277.1924
  12   2.0000     -10.185340      -277.1572
  13   2.0000      -1.056936       -28.7607
  14   2.0000      -1.036482       -28.2041
  15   2.0000      -1.004952       -27.3461
  16   2.0000      -0.997081       -27.1320
  17   2.0000      -0.790967       -21.5233
  18   2.0000      -0.779055       -21.1992
  19   2.0000      -0.767678       -20.8896
  20   2.0000      -0.730271       -19.8717
  21   2.0000      -0.674331       -18.3495
  22   2.0000      -0.604405       -16.4467
  23   2.0000      -0.599548       -16.3145
  24   2.0000      -0.590326       -16.0636
  25   2.0000      -0.585491       -15.9320
  26   2.0000      -0.522892       -14.2286
  27   2.0000      -0.519662       -14.1407
  28   2.0000      -0.495191       -13.4748
  29   2.0000      -0.492655       -13.4058
  30   2.0000      -0.470047       -12.7906
  31   2.0000      -0.457795       -12.4572
  32   2.0000      -0.448144       -12.1946
  33   2.0000      -0.439218       -11.9517
  34   2.0000      -0.426094       -11.5946
  35   2.0000      -0.410989       -11.1836
  36   2.0000      -0.403528       -10.9806
  37   2.0000      -0.393176       -10.6989
  38   2.0000      -0.377025       -10.2594
  39   2.0000      -0.368914       -10.0387
  40   2.0000      -0.357593        -9.7306
  41   2.0000      -0.354063        -9.6345
  42   2.0000      -0.349160        -9.5011
  43   2.0000      -0.337512        -9.1842
  44   2.0000      -0.325191        -8.8489
  45   2.0000      -0.307362        -8.3637
  46   2.0000      -0.302647        -8.2354
  47   2.0000      -0.272482        -7.4146
  48   2.0000      -0.270599        -7.3634
  49   2.0000      -0.256379        -6.9764
  50   2.0000      -0.244657        -6.6575
  51   0.0000       0.064926         1.7667
  52   0.0000       0.070142         1.9087
  53   0.0000       0.095140         2.5889
  54   0.0000       0.098651         2.6844
  55   0.0000       0.105624         2.8742

MULLIKEN ATOMIC CHARGES
-----------------------
   0 C :    0.287578
   1 C :   -0.262155
   2 C :   -0.298697
   3 C :   -0.003005
   4 O :   -0.511877
   5 H :    0.138371
   6 H :    0.145773
   7 H :    0.156549
   8 H :    0.141614
   9 H :    0.164560
  10 H :    0.148711
  11 H :    0.142829
  12 C :    0.003013
  13 H :    0.125711
  14 H :    0.165084
  15 O :   -0.526101
  16 C :    0.054216
  17 C :    0.089398
  18 C :   -0.298691
  19 C :   -0.031694
  20 O :   -0.526038
  21 H :    0.168627
  22 O :   -0.603541
  23 H :    0.166742
  24 H :    0.162621
  25 H :    0.141632
  26 H :    0.147612
  27 H :    0.147578
  28 H :    0.363581
Sum of atomic charges:    0.0000000

LOEWDIN ATOMIC CHARGES
----------------------
   0 C :    0.171521
   1 C :   -0.215687
   2 C :   -0.215719
   3 C :   -0.027437
   4 O :   -0.329771
   5 H :    0.093697
   6 H :    0.114543
   7 H :    0.123482
   8 H :    0.113805
   9 H :    0.120254
  10 H :    0.106354
  11 H :    0.102795
  12 C :   -0.036450
  13 H :    0.094232
  14 H :    0.114743
  15 O :   -0.328228
  16 C :    0.015399
  17 C :    0.037261
  18 C :   -0.241950
  19 C :   -0.038437
  20 O :   -0.329736
  21 H :    0.119381
  22 O :   -0.415022
  23 H :    0.122591
  24 H :    0.126904
  25 H :    0.111458
  26 H :    0.104527
  27 H :    0.103377
  28 H :    0.282112

  Mayer bond orders larger than 0.100000
B(  0-C ,  1-C ) :   0.9497 B(  0-C ,  4-O ) :   0.9107 B(  0-C ,  5-H ) :   0.9185
B(  0-C , 15-O ) :   0.8584 B(  1-C ,  2-C ) :   0.9573 B(  1-C ,  6-H ) :   0.9398
B(  1-C ,  7-H ) :   0.9359 B(  2-C ,  3-C ) :   0.9549 B(  2-C ,  8-H ) :   0.9451
B(  2-C ,  9-H ) :   0.9441 B(  3-C ,  4-O ) :   0.8367 B(  3-C , 10-H ) :   0.9356
B(  3-C , 11-H ) :   0.9403 B( 12-C , 13-H ) :   0.9192 B( 12-C , 14-H ) :   0.9202
B( 12-C , 15-O ) :   0.8156 B( 12-C , 16-C ) :   0.9055 B( 16-C , 17-C ) :   0.9117
B( 16-C , 20-O ) :   0.8438 B( 16-C , 21-H ) :   0.9241 B( 17-C , 18-C ) :   0.9105
B( 17-C , 22-O ) :   0.8919 B( 17-C , 23-H ) :   0.9255 B( 18-C , 19-C ) :   0.9414
B( 18-C , 24-H ) :   0.9380 B( 18-C , 25-H ) :   0.9355 B( 19-C , 20-O ) :   0.8426
B( 19-C , 26-H ) :   0.9354 B( 19-C , 27-H ) :   0.9380 B( 22-O , 28-H ) :   0.7952

FINAL SINGLE POINT ENERGY      -652.868982374185

DIPOLE MOMENT
-------------
                                X             Y             Z
Electronic contribution:     -3.60409      -1.27664       0.96005
Nuclear contribution   :      4.26294       1.19425      -1.28089
                        -----------------------------------------
Total Dipole Moment    :      0.65885      -0.08238      -0.32084
                        -----------------------------------------
Magnitude (a.u.)       :      0.73744
Magnitude (Debye)      :      1.87441

Rotational constants in cm-1:     0.060415     0.012083     0.011319
Rotational constants in MHz :  1811.185749   362.228854   339.323082

                             ****ORCA TERMINATED NORMALLY****
TOTAL RUN TIME: 0 days 0 hours 47 minutes 17 seconds 102 msec
