                         Program Version 4.2.0 -  RELEASE  -
|  1> # Test redundant internal optimization
|  2> #
|  3> ! RKS B3LYP  Opt TightSCF SmallPrint
|  4>
|  5> %basis
|  6>         Basis "6-31G"
|  7> end
|  8>
|  9> %geom
| 10> Constraints
| 11> { D 4  0  15  12  195.0   C } # D for Dihedral angle
| 12> { D 0  15  12  16  180.0   C } # D for Dihedral angle
| 13> { D 0  4  3  2   C } # D for Dihedral angle
| 14> { D 4  3  2  1   C } # D for Dihedral angle
| 15> { D 3  2  1  0   C } # D for Dihedral angle
| 16> { D 2  1  0  4   C } # D for Dihedral angle
| 17> { D 1  0  4  3   C } # D for Dihedral angle
| 18> { D 16  20  19  18   C } # D for Dihedral angle
| 19> { D 20  19  18  17   C } # D for Dihedral angle
| 20> { D 19  18  17  16   C } # D for Dihedral angle
| 21> { D 18  17  16  20   C } # D for Dihedral angle
| 22> { D 17  16  20  19   C } # D for Dihedral angle
| 23> { D 15  12  16  20   C } # D for Dihedral angle
| 24> end
| 25> end
| 26>
| 27>
| 28> #%pal
| 29> #nprocs 8
| 30> #end
| 31>
| 32> * xyz 0 1
| 33> C  -21.048   26.222   46.251
| 34> C  -20.361   27.558   45.944
| 35> C  -20.329   28.222   47.341
| 36> C  -20.110   27.022   48.296
| 37> O  -20.473   25.807   47.535
| 38> H  -20.833   25.428   45.533
| 39> H  -19.344   27.382   45.576
| 40> H  -20.898   28.157   45.201
| 41> H  -19.543   28.978   47.434
| 42> H  -21.289   28.710   47.548
| 43> H  -20.733   27.082   49.195
| 44> H  -19.064   26.913   48.597
| 45> C  -23.353   26.472   45.026
| 46> H  -22.979   27.325   44.447
| 47> H  -23.189   25.560   44.438
| 48> O  -22.586   26.394   46.375
| 49> C  -24.885   26.644   45.216
| 50> C  -25.217   27.984   45.883
| 51> C  -25.098   28.965   44.692
| 52> C  -25.618   28.129   43.495
| 53> O  -25.558   26.712   43.914
| 54> H  -25.282   25.770   45.735
| 55> H  -26.242   27.967   46.270
| 56> O  -24.258   28.337   47.053
| 57> H  -25.674   29.883   44.840
| 58> H  -24.050   29.247   44.541
| 59> H  -25.009   28.262   42.595
| 60> H  -26.661   28.350   43.253
| 61> H  -23.225   28.359   46.688
| 62> *
| 63>
| 64>                          ****END OF INPUT****
 Total Charge           Charge          ....    0
 Multiplicity           Mult            ....    1
 Number of Electrons    NEL             ....  102
FINAL SINGLE POINT ENERGY      -652.827068574195
FINAL SINGLE POINT ENERGY      -652.852227501078
FINAL SINGLE POINT ENERGY      -652.858856226904
FINAL SINGLE POINT ENERGY      -652.861792088183
FINAL SINGLE POINT ENERGY      -652.863777648842
FINAL SINGLE POINT ENERGY      -652.865197899965
FINAL SINGLE POINT ENERGY      -652.866090338009
FINAL SINGLE POINT ENERGY      -652.866475959868
FINAL SINGLE POINT ENERGY      -652.866533153127
FINAL SINGLE POINT ENERGY      -652.866543561857
                    ***********************HURRAY********************

CARTESIAN COORDINATES (ANGSTROEM)
---------------------------------
  C    -21.095893   26.224836   46.191653
  C    -20.351627   27.521358   45.882442
  C    -20.415242   28.259450   47.241345
  C    -20.310914   27.111201   48.264491
  O    -20.652910   25.872255   47.504768
  H    -20.888349   25.382272   45.525203
  H    -19.317085   27.283123   45.610064
  H    -20.796973   28.095743   45.065517
  H    -19.610812   28.992024   47.355229
  H    -21.370349   28.786637   47.332642
  H    -21.007158   27.206125   49.100900
  H    -19.297005   26.967647   48.647267
  C    -23.240057   26.465248   44.958906
  H    -22.843268   27.271272   44.326566
  H    -23.107183   25.512476   44.431086
  O    -22.544602   26.431922   46.246356
  C    -24.726656   26.689765   45.253874
  C    -25.061674   28.027625   45.934399
  C    -25.035595   29.010773   44.728066
  C    -25.592822   28.157088   43.569784
  O    -25.467401   26.731194   43.996053
  H    -25.108253   25.835416   45.819681
  H    -26.081360   27.966779   46.333764
  O    -24.179996   28.429163   47.004443
  H    -25.631851   29.906856   44.919151
  H    -24.001648   29.325763   44.553984
  H    -25.047979   28.290956   42.630220
  H    -26.656590   28.334215   43.388605
  H    -23.467749   27.751819   47.095539

 Multiplicity           Mult            ....    1
 Number of Electrons    NEL             ....  102
 Basis Dimension        Dim             ....  149

ORBITAL ENERGIES
----------------

  NO   OCC          E(Eh)            E(eV)
   0   2.0000     -19.164395      -521.4897
   1   2.0000     -19.151618      -521.1420
   2   2.0000     -19.142823      -520.9027
   3   2.0000     -19.116296      -520.1809
   4   2.0000     -10.293274      -280.0942
   5   2.0000     -10.241928      -278.6970
   6   2.0000     -10.237029      -278.5637
   7   2.0000     -10.233000      -278.4541
   8   2.0000     -10.232990      -278.4538
   9   2.0000     -10.229043      -278.3464
  10   2.0000     -10.196958      -277.4733
  11   2.0000     -10.193314      -277.3742
  12   2.0000     -10.182197      -277.0717
  13   2.0000      -1.068110       -29.0648
  14   2.0000      -1.028526       -27.9876
  15   2.0000      -1.010184       -27.4885
  16   2.0000      -0.994572       -27.0637
  17   2.0000      -0.796137       -21.6640
  18   2.0000      -0.776058       -21.1176
  19   2.0000      -0.770490       -20.9661
  20   2.0000      -0.737976       -20.0814
  21   2.0000      -0.681919       -18.5560
  22   2.0000      -0.609569       -16.5872
  23   2.0000      -0.602604       -16.3977
  24   2.0000      -0.595566       -16.2062
  25   2.0000      -0.582531       -15.8515
  26   2.0000      -0.532001       -14.4765
  27   2.0000      -0.520079       -14.1521
  28   2.0000      -0.503865       -13.7109
  29   2.0000      -0.492291       -13.3959
  30   2.0000      -0.475786       -12.9468
  31   2.0000      -0.460076       -12.5193
  32   2.0000      -0.450019       -12.2456
  33   2.0000      -0.437767       -11.9122
  34   2.0000      -0.430585       -11.7168
  35   2.0000      -0.418635       -11.3916
  36   2.0000      -0.410910       -11.1814
  37   2.0000      -0.389672       -10.6035
  38   2.0000      -0.383798       -10.4437
  39   2.0000      -0.370361       -10.0780
  40   2.0000      -0.366322        -9.9681
  41   2.0000      -0.364847        -9.9280
  42   2.0000      -0.351095        -9.5538
  43   2.0000      -0.342901        -9.3308
  44   2.0000      -0.325163        -8.8481
  45   2.0000      -0.320011        -8.7079
  46   2.0000      -0.291703        -7.9376
  47   2.0000      -0.273004        -7.4288
  48   2.0000      -0.269219        -7.3258
  49   2.0000      -0.249698        -6.7946
  50   2.0000      -0.247220        -6.7272
  51   0.0000       0.054053         1.4709
  52   0.0000       0.069196         1.8829
  53   0.0000       0.092257         2.5104
  54   0.0000       0.095924         2.6102
  55   0.0000       0.104692         2.8488

MULLIKEN ATOMIC CHARGES
-----------------------
   0 C :    0.313815
   1 C :   -0.274520
   2 C :   -0.311110
   3 C :   -0.011867
   4 O :   -0.500319
   5 H :    0.148095
   6 H :    0.152435
   7 H :    0.146952
   8 H :    0.148557
   9 H :    0.170426
  10 H :    0.162069
  11 H :    0.148656
  12 C :   -0.014711
  13 H :    0.136518
  14 H :    0.156588
  15 O :   -0.551105
  16 C :    0.049506
  17 C :    0.116650
  18 C :   -0.295682
  19 C :   -0.019645
  20 O :   -0.522114
  21 H :    0.166987
  22 H :    0.146567
  23 O :   -0.648970
  24 H :    0.152103
  25 H :    0.140962
  26 H :    0.140024
  27 H :    0.150740
  28 H :    0.402393
Sum of atomic charges:   -0.0000000

LOEWDIN ATOMIC CHARGES
----------------------
   0 C :    0.182898
   1 C :   -0.228967
   2 C :   -0.220189
   3 C :   -0.026538
   4 O :   -0.300765
   5 H :    0.102932
   6 H :    0.118281
   7 H :    0.115729
   8 H :    0.118430
   9 H :    0.122149
  10 H :    0.112874
  11 H :    0.106494
  12 C :   -0.044894
  13 H :    0.093454
  14 H :    0.109550
  15 O :   -0.340029
  16 C :    0.019929
  17 C :    0.041953
  18 C :   -0.233301
  19 C :   -0.032188
  20 O :   -0.323274
  21 H :    0.118706
  22 H :    0.103831
  23 O :   -0.441432
  24 H :    0.121654
  25 H :    0.109446
  26 H :    0.101149
  27 H :    0.106959
  28 H :    0.285159

  Mayer bond orders larger than 0.100000
B(  0-C ,  1-C ) :   0.9333 B(  0-C ,  4-O ) :   0.9515 B(  0-C ,  5-H ) :   0.9215
B(  0-C , 15-O ) :   0.7859 B(  1-C ,  2-C ) :   0.9483 B(  1-C ,  6-H ) :   0.9334
B(  1-C ,  7-H ) :   0.9333 B(  2-C ,  3-C ) :   0.9528 B(  2-C ,  8-H ) :   0.9445
B(  2-C ,  9-H ) :   0.9334 B(  3-C ,  4-O ) :   0.8275 B(  3-C , 10-H ) :   0.9335
B(  3-C , 11-H ) :   0.9394 B( 12-C , 13-H ) :   0.9140 B( 12-C , 14-H ) :   0.9208
B( 12-C , 15-O ) :   0.7916 B( 12-C , 16-C ) :   0.9068 B( 16-C , 17-C ) :   0.9174
B( 16-C , 20-O ) :   0.8561 B( 16-C , 21-H ) :   0.9277 B( 17-C , 18-C ) :   0.9064
B( 17-C , 22-H ) :   0.9265 B( 17-C , 23-O ) :   0.9284 B( 18-C , 19-C ) :   0.9405
B( 18-C , 24-H ) :   0.9445 B( 18-C , 25-H ) :   0.9431 B( 19-C , 20-O ) :   0.8335
B( 19-C , 26-H ) :   0.9347 B( 19-C , 27-H ) :   0.9381 B( 23-O , 28-H ) :   0.7060

FINAL SINGLE POINT ENERGY      -652.866545099782

DIPOLE MOMENT
-------------
                                X             Y             Z
Electronic contribution:     -2.24724      -5.04367       1.61140
Nuclear contribution   :      3.17469       5.73620      -2.36614
                        -----------------------------------------
Total Dipole Moment    :      0.92744       0.69253      -0.75473
                        -----------------------------------------
Magnitude (a.u.)       :      1.38180
Magnitude (Debye)      :      3.51226

Rotational constants in cm-1:     0.056698     0.014341     0.013425
Rotational constants in MHz :  1699.768565   429.924816   402.482257

                             ****ORCA TERMINATED NORMALLY****
TOTAL RUN TIME: 0 days 0 hours 53 minutes 28 seconds 994 msec
