                         Program Version 4.2.0 -  RELEASE  -
|  1> # Test redundant internal optimization
|  2> #
|  3> ! RKS B3LYP  Opt TightSCF SmallPrint
|  4>
|  5> %basis
|  6>         Basis "6-31G"
|  7> end
|  8>
|  9> %geom
| 10> Constraints
| 11> { D 4  0  15  12  90.0   C } # D for Dihedral angle
| 12> { D 0  15  12  16  210.0   C } # D for Dihedral angle
| 13> { D 0  4  3  2   C } # D for Dihedral angle
| 14> { D 4  3  2  1   C } # D for Dihedral angle
| 15> { D 3  2  1  0   C } # D for Dihedral angle
| 16> { D 2  1  0  4   C } # D for Dihedral angle
| 17> { D 1  0  4  3   C } # D for Dihedral angle
| 18> { D 16  20  19  18   C } # D for Dihedral angle
| 19> { D 20  19  18  17   C } # D for Dihedral angle
| 20> { D 19  18  17  16   C } # D for Dihedral angle
| 21> { D 18  17  16  20   C } # D for Dihedral angle
| 22> { D 17  16  20  19   C } # D for Dihedral angle
| 23> { D 15  12  16  20   C } # D for Dihedral angle
| 24> end
| 25> end
| 26>
| 27>
| 28> #%pal
| 29> #nprocs 8
| 30> #end
| 31>
| 32> * xyz 0 1
| 33> C  -21.048   26.222   46.251
| 34> C  -20.361   27.558   45.944
| 35> C  -20.329   28.222   47.341
| 36> C  -20.110   27.022   48.296
| 37> O  -20.473   25.807   47.535
| 38> H  -20.833   25.428   45.533
| 39> H  -19.344   27.382   45.576
| 40> H  -20.898   28.157   45.201
| 41> H  -19.543   28.978   47.434
| 42> H  -21.289   28.710   47.548
| 43> H  -20.733   27.082   49.195
| 44> H  -19.064   26.913   48.597
| 45> C  -23.061   27.816   46.783
| 46> H  -22.289   28.291   47.402
| 47> H  -23.218   28.438   45.893
| 48> O  -22.586   26.394   46.375
| 49> C  -24.390   27.797   47.588
| 50> C  -25.496   27.064   46.820
| 51> C  -25.134   25.583   47.086
| 52> C  -24.578   25.611   48.532
| 53> O  -24.231   27.020   48.822
| 54> H  -24.644   28.816   47.883
| 55> O  -26.883   27.407   47.428
| 56> H  -25.516   27.311   45.753
| 57> H  -25.992   24.911   46.982
| 58> H  -24.362   25.252   46.382
| 59> H  -23.685   24.989   48.651
| 60> H  -25.323   25.305   49.272
| 61> H  -26.887   27.167   48.497
| 62> *
| 63>
| 64>                          ****END OF INPUT****
 Total Charge           Charge          ....    0
 Multiplicity           Mult            ....    1
 Number of Electrons    NEL             ....  102
FINAL SINGLE POINT ENERGY      -652.795321666361
FINAL SINGLE POINT ENERGY      -652.833591909922
FINAL SINGLE POINT ENERGY      -652.852381214302
FINAL SINGLE POINT ENERGY      -652.856083095850
FINAL SINGLE POINT ENERGY      -652.856601289352
FINAL SINGLE POINT ENERGY      -652.856701422987
FINAL SINGLE POINT ENERGY      -652.856716958110
FINAL SINGLE POINT ENERGY      -652.856718212902
FINAL SINGLE POINT ENERGY      -652.856716993144
                    ***********************HURRAY********************

CARTESIAN COORDINATES (ANGSTROEM)
---------------------------------
  C    -21.191901   26.405834   46.414592
  C    -20.269138   27.540610   45.946050
  C    -19.943112   28.270540   47.283998
  C    -19.889190   27.097890   48.297250
  O    -20.589596   25.962279   47.649611
  H    -21.161713   25.535334   45.756904
  H    -19.364239   27.096506   45.520168
  H    -20.727226   28.188975   45.193476
  H    -18.989199   28.805629   47.235538
  H    -20.712292   29.000734   47.543767
  H    -20.383877   27.324511   49.245651
  H    -18.865570   26.767283   48.494810
  C    -23.197211   27.933344   46.866452
  H    -22.557055   28.479522   47.563705
  H    -23.343823   28.545925   45.965097
  O    -22.610277   26.651310   46.508857
  C    -24.533185   27.712246   47.578650
  C    -25.619617   26.956448   46.800520
  C    -25.218907   25.477424   47.051402
  C    -24.666579   25.507763   48.498065
  O    -24.357594   26.929044   48.798531
  H    -24.910160   28.697202   47.880282
  O    -26.939290   27.274965   47.327661
  H    -25.664951   27.217785   45.742719
  H    -26.085051   24.818725   46.938274
  H    -24.437170   25.187593   46.348604
  H    -23.747026   24.928282   48.604437
  H    -25.397688   25.176103   49.242917
  H    -26.927366   27.163193   48.302009

 Multiplicity           Mult            ....    1
 Number of Electrons    NEL             ....  102
 Basis Dimension        Dim             ....  149

ORBITAL ENERGIES
----------------

  NO   OCC          E(Eh)            E(eV)
   0   2.0000     -19.147777      -521.0375
   1   2.0000     -19.141612      -520.8698
   2   2.0000     -19.133069      -520.6373
   3   2.0000     -19.131441      -520.5930
   4   2.0000     -10.283020      -279.8152
   5   2.0000     -10.235895      -278.5329
   6   2.0000     -10.232445      -278.4390
   7   2.0000     -10.231546      -278.4145
   8   2.0000     -10.229208      -278.3509
   9   2.0000     -10.215761      -277.9850
  10   2.0000     -10.197227      -277.4807
  11   2.0000     -10.196489      -277.4606
  12   2.0000     -10.170465      -276.7524
  13   2.0000      -1.054008       -28.6810
  14   2.0000      -1.028291       -27.9812
  15   2.0000      -1.002307       -27.2742
  16   2.0000      -0.993621       -27.0378
  17   2.0000      -0.791989       -21.5511
  18   2.0000      -0.779082       -21.1999
  19   2.0000      -0.760675       -20.6990
  20   2.0000      -0.733551       -19.9609
  21   2.0000      -0.677406       -18.4331
  22   2.0000      -0.608845       -16.5675
  23   2.0000      -0.602027       -16.3820
  24   2.0000      -0.591785       -16.1033
  25   2.0000      -0.567367       -15.4388
  26   2.0000      -0.524200       -14.2642
  27   2.0000      -0.509497       -13.8641
  28   2.0000      -0.499639       -13.5959
  29   2.0000      -0.483665       -13.1612
  30   2.0000      -0.473192       -12.8762
  31   2.0000      -0.458242       -12.4694
  32   2.0000      -0.446703       -12.1554
  33   2.0000      -0.433474       -11.7954
  34   2.0000      -0.426748       -11.6124
  35   2.0000      -0.415331       -11.3017
  36   2.0000      -0.402849       -10.9621
  37   2.0000      -0.387556       -10.5459
  38   2.0000      -0.381812       -10.3896
  39   2.0000      -0.363732        -9.8976
  40   2.0000      -0.362162        -9.8549
  41   2.0000      -0.356893        -9.7116
  42   2.0000      -0.349302        -9.5050
  43   2.0000      -0.324873        -8.8402
  44   2.0000      -0.314598        -8.5606
  45   2.0000      -0.302801        -8.2396
  46   2.0000      -0.292471        -7.9586
  47   2.0000      -0.275365        -7.4931
  48   2.0000      -0.261431        -7.1139
  49   2.0000      -0.255444        -6.9510
  50   2.0000      -0.237895        -6.4734
  51   0.0000       0.067005         1.8233
  52   0.0000       0.078147         2.1265
  53   0.0000       0.090636         2.4663
  54   0.0000       0.105788         2.8786
  55   0.0000       0.107596         2.9278

MULLIKEN ATOMIC CHARGES
-----------------------
   0 C :    0.311414
   1 C :   -0.288694
   2 C :   -0.315782
   3 C :   -0.008671
   4 O :   -0.499139
   5 H :    0.162834
   6 H :    0.159591
   7 H :    0.147704
   8 H :    0.146516
   9 H :    0.150508
  10 H :    0.156730
  11 H :    0.146582
  12 C :   -0.001726
  13 H :    0.146410
  14 H :    0.129092
  15 O :   -0.531592
  16 C :    0.072067
  17 C :    0.076038
  18 C :   -0.288842
  19 C :   -0.022736
  20 O :   -0.527991
  21 H :    0.151136
  22 O :   -0.602480
  23 H :    0.147807
  24 H :    0.145081
  25 H :    0.179108
  26 H :    0.165475
  27 H :    0.132478
  28 H :    0.361082
Sum of atomic charges:   -0.0000000

LOEWDIN ATOMIC CHARGES
----------------------
   0 C :    0.176319
   1 C :   -0.229375
   2 C :   -0.223480
   3 C :   -0.032147
   4 O :   -0.318436
   5 H :    0.110310
   6 H :    0.124582
   7 H :    0.117160
   8 H :    0.116213
   9 H :    0.108979
  10 H :    0.109477
  11 H :    0.104683
  12 C :   -0.039594
  13 H :    0.104508
  14 H :    0.096274
  15 O :   -0.322690
  16 C :    0.014895
  17 C :    0.038696
  18 C :   -0.242235
  19 C :   -0.033858
  20 O :   -0.330666
  21 H :    0.113642
  22 O :   -0.417643
  23 H :    0.114182
  24 H :    0.116621
  25 H :    0.132439
  26 H :    0.115518
  27 H :    0.094480
  28 H :    0.281147

  Mayer bond orders larger than 0.100000
B(  0-C ,  1-C ) :   0.9244 B(  0-C ,  4-O ) :   0.9100 B(  0-C ,  5-H ) :   0.9362
B(  0-C , 15-O ) :   0.8885 B(  1-C ,  2-C ) :   0.9543 B(  1-C ,  6-H ) :   0.9350
B(  1-C ,  7-H ) :   0.9359 B(  2-C ,  3-C ) :   0.9471 B(  2-C ,  8-H ) :   0.9445
B(  2-C ,  9-H ) :   0.9367 B(  3-C ,  4-O ) :   0.8441 B(  3-C , 10-H ) :   0.9326
B(  3-C , 11-H ) :   0.9389 B( 12-C , 13-H ) :   0.9032 B( 12-C , 14-H ) :   0.9158
B( 12-C , 15-O ) :   0.8389 B( 12-C , 16-C ) :   0.8966 B( 16-C , 17-C ) :   0.9102
B( 16-C , 20-O ) :   0.8798 B( 16-C , 21-H ) :   0.9217 B( 17-C , 18-C ) :   0.9251
B( 17-C , 22-O ) :   0.8915 B( 17-C , 23-H ) :   0.9364 B( 18-C , 19-C ) :   0.9485
B( 18-C , 24-H ) :   0.9373 B( 18-C , 25-H ) :   0.9174 B( 19-C , 20-O ) :   0.8322
B( 19-C , 26-H ) :   0.9308 B( 19-C , 27-H ) :   0.9369 B( 22-O , 28-H ) :   0.7969

FINAL SINGLE POINT ENERGY      -652.856705374742

DIPOLE MOMENT
-------------
                                X             Y             Z
Electronic contribution:     -3.73245      -1.73273       1.06971
Nuclear contribution   :      4.83696       2.39154      -1.49479
                        -----------------------------------------
Total Dipole Moment    :      1.10451       0.65881      -0.42507
                        -----------------------------------------
Magnitude (a.u.)       :      1.35450
Magnitude (Debye)      :      3.44286

Rotational constants in cm-1:     0.059590     0.014322     0.013804
Rotational constants in MHz :  1786.448921   429.374007   413.829727

                             ****ORCA TERMINATED NORMALLY****
TOTAL RUN TIME: 0 days 0 hours 52 minutes 55 seconds 274 msec
