                         Program Version 4.2.0 -  RELEASE  -
|  1> # Test redundant internal optimization
|  2> #
|  3> ! RKS B3LYP  Opt TightSCF SmallPrint
|  4>
|  5> %basis
|  6>         Basis "6-31G"
|  7> end
|  8>
|  9> %geom
| 10> Constraints
| 11> { D 4  0  15  12  120.0   C } # D for Dihedral angle
| 12> { D 0  15  12  16  105.0   C } # D for Dihedral angle
| 13> { D 0  4  3  2   C } # D for Dihedral angle
| 14> { D 4  3  2  1   C } # D for Dihedral angle
| 15> { D 3  2  1  0   C } # D for Dihedral angle
| 16> { D 2  1  0  4   C } # D for Dihedral angle
| 17> { D 1  0  4  3   C } # D for Dihedral angle
| 18> { D 16  20  19  18   C } # D for Dihedral angle
| 19> { D 20  19  18  17   C } # D for Dihedral angle
| 20> { D 19  18  17  16   C } # D for Dihedral angle
| 21> { D 18  17  16  20   C } # D for Dihedral angle
| 22> { D 17  16  20  19   C } # D for Dihedral angle
| 23> { D 15  12  16  20   C } # D for Dihedral angle
| 24> end
| 25> end
| 26>
| 27>
| 28> #%pal
| 29> #nprocs 8
| 30> #end
| 31>
| 32> * xyz 0 1
| 33> C  -21.048   26.222   46.251
| 34> C  -20.361   27.558   45.944
| 35> C  -20.329   28.222   47.341
| 36> C  -20.110   27.022   48.296
| 37> O  -20.473   25.807   47.535
| 38> H  -20.833   25.428   45.533
| 39> H  -19.344   27.382   45.576
| 40> H  -20.898   28.157   45.201
| 41> H  -19.543   28.978   47.434
| 42> H  -21.289   28.710   47.548
| 43> H  -20.733   27.082   49.195
| 44> H  -19.064   26.913   48.597
| 45> C  -23.119   27.818   46.058
| 46> H  -23.843   28.114   46.828
| 47> H  -22.297   28.546   46.062
| 48> O  -22.586   26.394   46.375
| 49> C  -23.818   27.903   44.673
| 50> C  -25.085   27.041   44.635
| 51> C  -26.100   27.943   45.375
| 52> C  -25.681   29.371   44.944
| 53> O  -24.301   29.266   44.425
| 54> H  -23.091   27.674   43.891
| 55> O  -25.527   26.809   43.164
| 56> H  -24.956   26.064   45.113
| 57> H  -27.139   27.717   45.113
| 58> H  -25.993   27.819   46.459
| 59> H  -25.698   30.083   45.776
| 60> H  -26.302   29.761   44.133
| 61> H  -25.663   27.775   42.663
| 62> *
| 63>
| 64>                          ****END OF INPUT****
 Total Charge           Charge          ....    0
 Multiplicity           Mult            ....    1
 Number of Electrons    NEL             ....  102
FINAL SINGLE POINT ENERGY      -652.821678608362
FINAL SINGLE POINT ENERGY      -652.845868184321
FINAL SINGLE POINT ENERGY      -652.853576087174
FINAL SINGLE POINT ENERGY      -652.855640329701
FINAL SINGLE POINT ENERGY      -652.855946288306
FINAL SINGLE POINT ENERGY      -652.856003482038
                    ***********************HURRAY********************

CARTESIAN COORDINATES (ANGSTROEM)
---------------------------------
  C    -21.200296   26.361587   46.274371
  C    -20.247925   27.513004   45.935282
  C    -20.051847   28.191931   47.320035
  C    -20.083548   26.986278   48.289912
  O    -20.713448   25.874797   47.539540
  H    -21.139064   25.511114   45.593267
  H    -19.304649   27.080148   45.586689
  H    -20.612203   28.191749   45.159515
  H    -19.109388   28.744754   47.378913
  H    -20.863998   28.893178   47.535854
  H    -20.665771   27.178721   49.195326
  H    -19.082206   26.649070   48.572382
  C    -23.186867   27.988304   46.115258
  H    -23.907101   28.169041   46.920273
  H    -22.445757   28.791673   46.141090
  O    -22.619253   26.671771   46.358129
  C    -23.876958   28.007387   44.749155
  C    -25.066059   27.047024   44.606998
  C    -26.196626   27.845245   45.301019
  C    -25.871611   29.315503   44.934758
  O    -24.450436   29.336342   44.502783
  H    -23.138617   27.826650   43.961220
  O    -25.361276   26.793349   43.204840
  H    -24.877307   26.071213   45.051822
  H    -27.176022   27.523706   44.939160
  H    -26.163618   27.687447   46.384413
  H    -25.996874   30.002926   45.777051
  H    -26.468659   29.682458   44.093902
  H    -25.346617   27.642631   42.715044

 Multiplicity           Mult            ....    1
 Number of Electrons    NEL             ....  102
 Basis Dimension        Dim             ....  149

ORBITAL ENERGIES
----------------

  NO   OCC          E(Eh)            E(eV)
   0   2.0000     -19.146836      -521.0119
   1   2.0000     -19.143403      -520.9185
   2   2.0000     -19.139798      -520.8204
   3   2.0000     -19.135032      -520.6907
   4   2.0000     -10.282448      -279.7996
   5   2.0000     -10.235316      -278.5171
   6   2.0000     -10.234711      -278.5006
   7   2.0000     -10.233512      -278.4680
   8   2.0000     -10.233311      -278.4625
   9   2.0000     -10.228665      -278.3361
  10   2.0000     -10.196827      -277.4698
  11   2.0000     -10.195886      -277.4442
  12   2.0000     -10.187777      -277.2235
  13   2.0000      -1.051705       -28.6184
  14   2.0000      -1.036612       -28.2076
  15   2.0000      -1.004681       -27.3388
  16   2.0000      -0.995893       -27.0996
  17   2.0000      -0.792404       -21.5624
  18   2.0000      -0.781627       -21.2692
  19   2.0000      -0.770397       -20.9636
  20   2.0000      -0.735343       -20.0097
  21   2.0000      -0.681520       -18.5451
  22   2.0000      -0.607100       -16.5200
  23   2.0000      -0.603525       -16.4228
  24   2.0000      -0.601880       -16.3780
  25   2.0000      -0.572767       -15.5858
  26   2.0000      -0.528453       -14.3799
  27   2.0000      -0.513651       -13.9772
  28   2.0000      -0.503307       -13.6957
  29   2.0000      -0.492421       -13.3994
  30   2.0000      -0.474428       -12.9099
  31   2.0000      -0.461059       -12.5461
  32   2.0000      -0.450115       -12.2483
  33   2.0000      -0.439670       -11.9640
  34   2.0000      -0.429076       -11.6758
  35   2.0000      -0.413429       -11.2500
  36   2.0000      -0.407847       -11.0981
  37   2.0000      -0.392697       -10.6858
  38   2.0000      -0.385437       -10.4883
  39   2.0000      -0.368432       -10.0256
  40   2.0000      -0.364606        -9.9214
  41   2.0000      -0.359726        -9.7886
  42   2.0000      -0.357727        -9.7343
  43   2.0000      -0.330899        -9.0042
  44   2.0000      -0.317158        -8.6303
  45   2.0000      -0.308350        -8.3906
  46   2.0000      -0.293444        -7.9850
  47   2.0000      -0.279043        -7.5931
  48   2.0000      -0.266246        -7.2449
  49   2.0000      -0.258230        -7.0268
  50   2.0000      -0.240589        -6.5468
  51   0.0000       0.063029         1.7151
  52   0.0000       0.070847         1.9278
  53   0.0000       0.090278         2.4566
  54   0.0000       0.095766         2.6059
  55   0.0000       0.101846         2.7714

MULLIKEN ATOMIC CHARGES
-----------------------
   0 C :    0.319334
   1 C :   -0.311379
   2 C :   -0.308922
   3 C :   -0.004200
   4 O :   -0.494544
   5 H :    0.162584
   6 H :    0.160185
   7 H :    0.154429
   8 H :    0.147858
   9 H :    0.153755
  10 H :    0.149276
  11 H :    0.146125
  12 C :   -0.019260
  13 H :    0.145938
  14 H :    0.145846
  15 O :   -0.531940
  16 C :    0.058222
  17 C :    0.091930
  18 C :   -0.297761
  19 C :   -0.036949
  20 O :   -0.528259
  21 H :    0.154183
  22 O :   -0.603806
  23 H :    0.179338
  24 H :    0.160604
  25 H :    0.150551
  26 H :    0.148183
  27 H :    0.148084
  28 H :    0.360599
Sum of atomic charges:   -0.0000000

LOEWDIN ATOMIC CHARGES
----------------------
   0 C :    0.181492
   1 C :   -0.234238
   2 C :   -0.221277
   3 C :   -0.029649
   4 O :   -0.312023
   5 H :    0.108795
   6 H :    0.125179
   7 H :    0.117903
   8 H :    0.117212
   9 H :    0.110667
  10 H :    0.106073
  11 H :    0.104482
  12 C :   -0.042035
  13 H :    0.106521
  14 H :    0.105355
  15 O :   -0.331299
  16 C :    0.007130
  17 C :    0.038315
  18 C :   -0.240698
  19 C :   -0.039800
  20 O :   -0.334198
  21 H :    0.110874
  22 O :   -0.415042
  23 H :    0.129808
  24 H :    0.126604
  25 H :    0.116295
  26 H :    0.104385
  27 H :    0.102959
  28 H :    0.280210

  Mayer bond orders larger than 0.100000
B(  0-C ,  1-C ) :   0.9316 B(  0-C ,  4-O ) :   0.9203 B(  0-C ,  5-H ) :   0.9311
B(  0-C , 15-O ) :   0.8606 B(  1-C ,  2-C ) :   0.9505 B(  1-C ,  6-H ) :   0.9333
B(  1-C ,  7-H ) :   0.9280 B(  2-C ,  3-C ) :   0.9483 B(  2-C ,  8-H ) :   0.9454
B(  2-C ,  9-H ) :   0.9389 B(  3-C ,  4-O ) :   0.8450 B(  3-C , 10-H ) :   0.9343
B(  3-C , 11-H ) :   0.9393 B( 12-C , 13-H ) :   0.9346 B( 12-C , 14-H ) :   0.9049
B( 12-C , 15-O ) :   0.8373 B( 12-C , 16-C ) :   0.8826 B( 16-C , 17-C ) :   0.9142
B( 16-C , 20-O ) :   0.8421 B( 16-C , 21-H ) :   0.9276 B( 17-C , 18-C ) :   0.9137
B( 17-C , 22-O ) :   0.8874 B( 17-C , 23-H ) :   0.9227 B( 18-C , 19-C ) :   0.9423
B( 18-C , 24-H ) :   0.9379 B( 18-C , 25-H ) :   0.9338 B( 19-C , 20-O ) :   0.8425
B( 19-C , 26-H ) :   0.9351 B( 19-C , 27-H ) :   0.9376 B( 22-O , 28-H ) :   0.7974

FINAL SINGLE POINT ENERGY      -652.856010121109

DIPOLE MOMENT
-------------
                                X             Y             Z
Electronic contribution:     -1.38808      -3.54378      -2.31487
Nuclear contribution   :      1.73701       4.82885       2.63476
                        -----------------------------------------
Total Dipole Moment    :      0.34892       1.28507       0.31989
                        -----------------------------------------
Magnitude (a.u.)       :      1.36948
Magnitude (Debye)      :      3.48095

Rotational constants in cm-1:     0.060204     0.012311     0.011699
Rotational constants in MHz :  1804.879246   369.081777   350.721602

                             ****ORCA TERMINATED NORMALLY****
TOTAL RUN TIME: 0 days 0 hours 21 minutes 14 seconds 942 msec
