                         Program Version 4.2.1 -  RELEASE  -
|  1> # Test redundant internal optimization
|  2> #
|  3> ! RKS B3LYP  Opt TightSCF SmallPrint
|  4>
|  5> %basis
|  6>         Basis "6-31G"
|  7> end
|  8>
|  9> %geom
| 10> Constraints
| 11> { D 4  0  19  14  60.0   C } # D for Dihedral angle
| 12> { D 0  19  14  12  90.0   C } # D for Dihedral angle
| 13> { D 0  4  3  2   C } # D for Dihedral angle
| 14> { D 4  3  2  1   C } # D for Dihedral angle
| 15> { D 3  2  1  0   C } # D for Dihedral angle
| 16> { D 2  1  0  4   C } # D for Dihedral angle
| 17> { D 1  0  4  3   C } # D for Dihedral angle
| 18> { D 14  15  16  17   C } # D for Dihedral angle
| 19> { D 15  16  17  12   C } # D for Dihedral angle
| 20> { D 16  17  12  14   C } # D for Dihedral angle
| 21> { D 17  12  14  15   C } # D for Dihedral angle
| 22> { D 12  14  15  16   C } # D for Dihedral angle
| 23> end
| 24> end
| 25>
| 26>
| 27> #%pal
| 28> #nprocs 8
| 29> #end
| 30>
| 31> * xyz 0 1
| 32> C  -21.048   26.222   46.251
| 33> C  -20.361   27.558   45.944
| 34> C  -20.329   28.222   47.341
| 35> C  -20.110   27.022   48.296
| 36> O  -20.473   25.807   47.535
| 37> H  -20.833   25.428   45.533
| 38> H  -19.344   27.382   45.576
| 39> H  -20.898   28.157   45.201
| 40> H  -19.543   28.978   47.434
| 41> H  -21.289   28.710   47.548
| 42> H  -20.733   27.082   49.195
| 43> H  -19.064   26.913   48.597
| 44> C  -23.001   28.738   46.664
| 45> H  -23.026   29.546   47.412
| 46> C  -22.882   27.363   47.331
| 47> C  -24.338   27.107   47.786
| 48> C  -25.179   27.756   46.657
| 49> O  -24.273   28.676   45.935
| 50> H  -22.223   28.954   45.930
| 51> O  -22.472   26.381   46.366
| 52> H  -22.169   27.349   48.162
| 53> H  -24.562   26.044   47.915
| 54> H  -24.527   27.608   48.744
| 55> H  -26.034   28.322   47.042
| 56> H  -25.539   27.022   45.930
| 57> *
| 58>
| 59>                          ****END OF INPUT****
 Total Charge           Charge          ....    0
 Multiplicity           Mult            ....    1
 Number of Electrons    NEL             ....   86
FINAL SINGLE POINT ENERGY      -538.389036667420
FINAL SINGLE POINT ENERGY      -538.423188736406
FINAL SINGLE POINT ENERGY      -538.426674472993
FINAL SINGLE POINT ENERGY      -538.427225081851
FINAL SINGLE POINT ENERGY      -538.427294152217
FINAL SINGLE POINT ENERGY      -538.427323576470
FINAL SINGLE POINT ENERGY      -538.427324714075
                    ***********************HURRAY********************

CARTESIAN COORDINATES (ANGSTROEM)
---------------------------------
  C    -21.106170   26.312339   46.409661
  C    -20.232279   27.478166   45.922119
  C    -19.890304   28.209137   47.254417
  C    -19.770779   27.032995   48.258114
  O    -20.452890   25.879326   47.626931
  H    -21.077082   25.456860   45.733279
  H    -19.324850   27.064411   45.470350
  H    -20.736055   28.107243   45.184831
  H    -18.960139   28.781777   47.187573
  H    -20.683554   28.902902   47.543515
  H    -20.239201   27.240687   49.225388
  H    -18.731400   26.735369   48.425633
  C    -23.290506   28.876809   46.855913
  H    -23.510430   29.611039   47.647221
  C    -23.106169   27.487833   47.466967
  C    -24.566647   27.048313   47.687214
  C    -25.313468   27.667107   46.482233
  O    -24.426603   28.726305   45.945505
  H    -22.452325   29.232400   46.258065
  O    -22.527349   26.521616   46.538794
  H    -22.537329   27.498001   48.403682
  H    -24.634580   25.959085   47.722669
  H    -24.935289   27.457477   48.634635
  H    -26.272880   28.113853   46.763982
  H    -25.471723   26.945948   45.676310

 Multiplicity           Mult            ....    1
 Number of Electrons    NEL             ....   86
 Basis Dimension        Dim             ....  127

ORBITAL ENERGIES
----------------

  NO   OCC          E(Eh)            E(eV)
   0   2.0000     -19.144087      -520.9371
   1   2.0000     -19.141837      -520.8759
   2   2.0000     -19.128547      -520.5142
   3   2.0000     -10.278872      -279.7023
   4   2.0000     -10.241914      -278.6967
   5   2.0000     -10.232443      -278.4389
   6   2.0000     -10.224747      -278.2295
   7   2.0000     -10.218510      -278.0598
   8   2.0000     -10.195915      -277.4450
   9   2.0000     -10.191217      -277.3171
  10   2.0000     -10.183795      -277.1151
  11   2.0000      -1.053411       -28.6648
  12   2.0000      -1.014848       -27.6154
  13   2.0000      -0.991498       -26.9800
  14   2.0000      -0.791742       -21.5444
  15   2.0000      -0.785776       -21.3820
  16   2.0000      -0.740228       -20.1426
  17   2.0000      -0.725731       -19.7482
  18   2.0000      -0.622137       -16.9292
  19   2.0000      -0.606626       -16.5071
  20   2.0000      -0.597897       -16.2696
  21   2.0000      -0.566654       -15.4194
  22   2.0000      -0.519058       -14.1243
  23   2.0000      -0.504800       -13.7363
  24   2.0000      -0.490926       -13.3588
  25   2.0000      -0.485049       -13.1989
  26   2.0000      -0.453516       -12.3408
  27   2.0000      -0.441591       -12.0163
  28   2.0000      -0.436247       -11.8709
  29   2.0000      -0.418500       -11.3880
  30   2.0000      -0.410220       -11.1627
  31   2.0000      -0.389090       -10.5877
  32   2.0000      -0.371766       -10.1163
  33   2.0000      -0.367007        -9.9868
  34   2.0000      -0.363820        -9.9000
  35   2.0000      -0.362117        -9.8537
  36   2.0000      -0.343926        -9.3587
  37   2.0000      -0.318263        -8.6604
  38   2.0000      -0.306617        -8.3435
  39   2.0000      -0.302810        -8.2399
  40   2.0000      -0.266179        -7.2431
  41   2.0000      -0.254149        -6.9157
  42   2.0000      -0.233857        -6.3636
  43   0.0000       0.067713         1.8426
  44   0.0000       0.089566         2.4372
  45   0.0000       0.093887         2.5548
  46   0.0000       0.099752         2.7144
  47   0.0000       0.113204         3.0804

MULLIKEN ATOMIC CHARGES
-----------------------
   0 C :    0.303082
   1 C :   -0.279055
   2 C :   -0.319062
   3 C :   -0.013102
   4 O :   -0.506760
   5 H :    0.166420
   6 H :    0.154604
   7 H :    0.159398
   8 H :    0.148158
   9 H :    0.147880
  10 H :    0.141816
  11 H :    0.148793
  12 C :    0.002429
  13 H :    0.122643
  14 C :    0.054748
  15 C :   -0.285786
  16 C :   -0.000708
  17 O :   -0.524073
  18 H :    0.154364
  19 O :   -0.514751
  20 H :    0.138632
  21 H :    0.172048
  22 H :    0.136190
  23 H :    0.134789
  24 H :    0.157304
Sum of atomic charges:   -0.0000000

LOEWDIN ATOMIC CHARGES
----------------------
   0 C :    0.176985
   1 C :   -0.229950
   2 C :   -0.225538
   3 C :   -0.034442
   4 O :   -0.321506
   5 H :    0.114268
   6 H :    0.121706
   7 H :    0.121902
   8 H :    0.117285
   9 H :    0.108589
  10 H :    0.099470
  11 H :    0.105020
  12 C :   -0.050364
  13 H :    0.091100
  14 C :    0.034453
  15 C :   -0.221816
  16 C :   -0.027579
  17 O :   -0.331027
  18 H :    0.112783
  19 O :   -0.313838
  20 H :    0.101361
  21 H :    0.132632
  22 H :    0.110409
  23 H :    0.097872
  24 H :    0.110225

  Mayer bond orders larger than 0.100000
B(  0-C ,  1-C ) :   0.9145 B(  0-C ,  4-O ) :   0.8973 B(  0-C ,  5-H ) :   0.9360
B(  0-C , 19-O ) :   0.9060 B(  1-C ,  2-C ) :   0.9557 B(  1-C ,  6-H ) :   0.9337
B(  1-C ,  7-H ) :   0.9314 B(  2-C ,  3-C ) :   0.9457 B(  2-C ,  8-H ) :   0.9451
B(  2-C ,  9-H ) :   0.9375 B(  3-C ,  4-O ) :   0.8457 B(  3-C , 10-H ) :   0.9322
B(  3-C , 11-H ) :   0.9387 B( 12-C , 13-H ) :   0.9090 B( 12-C , 14-C ) :   0.9090
B( 12-C , 17-O ) :   0.8704 B( 12-C , 18-H ) :   0.9273 B( 14-C , 15-C ) :   0.9569
B( 14-C , 19-O ) :   0.8313 B( 14-C , 20-H ) :   0.9145 B( 15-C , 16-C ) :   0.9489
B( 15-C , 21-H ) :   0.9350 B( 15-C , 22-H ) :   0.9435 B( 16-C , 17-O ) :   0.8509
B( 16-C , 23-H ) :   0.9335 B( 16-C , 24-H ) :   0.9358

FINAL SINGLE POINT ENERGY      -538.427323687465

DIPOLE MOMENT
-------------
                                X             Y             Z
Electronic contribution:     -1.20186      -2.92394      -1.74566
Nuclear contribution   :      1.79294       3.49642       2.43804
                        -----------------------------------------
Total Dipole Moment    :      0.59109       0.57248       0.69239
                        -----------------------------------------
Magnitude (a.u.)       :      1.07541
Magnitude (Debye)      :      2.73348

Rotational constants in cm-1:     0.077427     0.023054     0.021515
Rotational constants in MHz :  2321.197373   691.127405   644.990326

                             ****ORCA TERMINATED NORMALLY****
TOTAL RUN TIME: 0 days 0 hours 8 minutes 38 seconds 243 msec
