                         Program Version 4.2.0 -  RELEASE  -
|  1> # Test redundant internal optimization
|  2> #
|  3> ! RKS B3LYP  Opt TightSCF SmallPrint
|  4>
|  5> %basis
|  6>         Basis "6-31G"
|  7> end
|  8>
|  9> %geom
| 10> Constraints
| 11> { D 4  0  15  12  285.0   C } # D for Dihedral angle
| 12> { D 0  15  12  16  180.0   C } # D for Dihedral angle
| 13> { D 0  4  3  2   C } # D for Dihedral angle
| 14> { D 4  3  2  1   C } # D for Dihedral angle
| 15> { D 3  2  1  0   C } # D for Dihedral angle
| 16> { D 2  1  0  4   C } # D for Dihedral angle
| 17> { D 1  0  4  3   C } # D for Dihedral angle
| 18> { D 16  20  19  18   C } # D for Dihedral angle
| 19> { D 20  19  18  17   C } # D for Dihedral angle
| 20> { D 19  18  17  16   C } # D for Dihedral angle
| 21> { D 18  17  16  20   C } # D for Dihedral angle
| 22> { D 17  16  20  19   C } # D for Dihedral angle
| 23> { D 15  12  16  20   C } # D for Dihedral angle
| 24> end
| 25> end
| 26>
| 27>
| 28> #%pal
| 29> #nprocs 8
| 30> #end
| 31>
| 32> * xyz 0 1
| 33> C  -21.048   26.222   46.251
| 34> C  -20.361   27.558   45.944
| 35> C  -20.329   28.222   47.341
| 36> C  -20.110   27.022   48.296
| 37> O  -20.473   25.807   47.535
| 38> H  -20.833   25.428   45.533
| 39> H  -19.344   27.382   45.576
| 40> H  -20.898   28.157   45.201
| 41> H  -19.543   28.978   47.434
| 42> H  -21.289   28.710   47.548
| 43> H  -20.733   27.082   49.195
| 44> H  -19.064   26.913   48.597
| 45> C  -23.396   25.070   46.435
| 46> H  -23.209   24.490   45.523
| 47> H  -23.081   24.466   47.296
| 48> O  -22.586   26.394   46.375
| 49> C  -24.927   25.307   46.559
| 50> C  -25.682   23.985   46.732
| 51> C  -25.452   23.686   48.233
| 52> C  -25.460   25.095   48.877
| 53> O  -25.231   26.060   47.780
| 54> H  -25.264   25.914   45.716
| 55> H  -26.749   24.131   46.527
| 56> O  -25.156   22.855   45.805
| 57> H  -26.217   23.029   48.657
| 58> H  -24.478   23.202   48.375
| 59> H  -24.673   25.216   49.630
| 60> H  -26.425   25.342   49.329
| 61> H  -24.090   22.690   45.994
| 62> *
| 63>
| 64>                          ****END OF INPUT****
 Total Charge           Charge          ....    0
 Multiplicity           Mult            ....    1
 Number of Electrons    NEL             ....  102
FINAL SINGLE POINT ENERGY      -652.831042257320
FINAL SINGLE POINT ENERGY      -652.856612881214
FINAL SINGLE POINT ENERGY      -652.861558442505
FINAL SINGLE POINT ENERGY      -652.862444606205
FINAL SINGLE POINT ENERGY      -652.862597448612
FINAL SINGLE POINT ENERGY      -652.862627822193
FINAL SINGLE POINT ENERGY      -652.862632462477
FINAL SINGLE POINT ENERGY      -652.862632965739
                    ***********************HURRAY********************

CARTESIAN COORDINATES (ANGSTROEM)
---------------------------------
  C    -21.070450   26.161058   46.229388
  C    -20.522507   27.562970   45.959867
  C    -20.521696   28.179155   47.377347
  C    -20.168757   26.978066   48.282447
  O    -20.437359   25.762914   47.471461
  H    -20.815572   25.391624   45.492573
  H    -19.504474   27.483616   45.561658
  H    -21.142940   28.114075   45.250447
  H    -19.805434   29.000206   47.479546
  H    -21.521252   28.555437   47.611731
  H    -20.774260   26.936536   49.191194
  H    -19.108626   26.944478   48.551788
  C    -23.210334   25.021201   46.432392
  H    -23.046506   24.445836   45.508098
  H    -22.831867   24.436940   47.283341
  O    -22.497630   26.284296   46.368180
  C    -24.697081   25.325496   46.577654
  C    -25.571481   24.067480   46.707143
  C    -25.446005   23.745445   48.226697
  C    -25.369644   25.149200   48.866709
  O    -25.001638   26.093932   47.781292
  H    -25.000249   25.957997   45.738335
  H    -26.604079   24.316428   46.453629
  O    -25.227847   22.975665   45.819610
  H    -26.286720   23.152339   48.595852
  H    -24.524075   23.174687   48.402873
  H    -24.622491   25.213514   49.664002
  H    -26.335934   25.476929   49.261593
  H    -24.434092   22.505482   46.147154

 Multiplicity           Mult            ....    1
 Number of Electrons    NEL             ....  102
 Basis Dimension        Dim             ....  149

ORBITAL ENERGIES
----------------

  NO   OCC          E(Eh)            E(eV)
   0   2.0000     -19.149452      -521.0831
   1   2.0000     -19.140930      -520.8512
   2   2.0000     -19.135862      -520.7133
   3   2.0000     -19.135113      -520.6929
   4   2.0000     -10.274655      -279.5876
   5   2.0000     -10.244365      -278.7633
   6   2.0000     -10.229064      -278.3470
   7   2.0000     -10.228771      -278.3390
   8   2.0000     -10.226941      -278.2892
   9   2.0000     -10.220796      -278.1220
  10   2.0000     -10.194963      -277.4191
  11   2.0000     -10.180577      -277.0276
  12   2.0000     -10.179260      -276.9918
  13   2.0000      -1.052320       -28.6351
  14   2.0000      -1.032596       -28.0984
  15   2.0000      -1.014002       -27.5924
  16   2.0000      -0.990703       -26.9584
  17   2.0000      -0.785958       -21.3870
  18   2.0000      -0.780303       -21.2331
  19   2.0000      -0.764736       -20.8095
  20   2.0000      -0.726457       -19.7679
  21   2.0000      -0.676914       -18.4198
  22   2.0000      -0.610849       -16.6221
  23   2.0000      -0.594307       -16.1719
  24   2.0000      -0.585838       -15.9415
  25   2.0000      -0.576458       -15.6862
  26   2.0000      -0.530199       -14.4274
  27   2.0000      -0.509646       -13.8682
  28   2.0000      -0.493530       -13.4296
  29   2.0000      -0.485991       -13.2245
  30   2.0000      -0.469620       -12.7790
  31   2.0000      -0.456333       -12.4174
  32   2.0000      -0.439722       -11.9654
  33   2.0000      -0.436388       -11.8747
  34   2.0000      -0.426353       -11.6017
  35   2.0000      -0.413291       -11.2462
  36   2.0000      -0.399900       -10.8818
  37   2.0000      -0.397246       -10.8096
  38   2.0000      -0.376230       -10.2377
  39   2.0000      -0.371860       -10.1188
  40   2.0000      -0.353489        -9.6189
  41   2.0000      -0.350387        -9.5345
  42   2.0000      -0.341950        -9.3049
  43   2.0000      -0.330362        -8.9896
  44   2.0000      -0.321907        -8.7595
  45   2.0000      -0.314682        -8.5629
  46   2.0000      -0.296673        -8.0729
  47   2.0000      -0.271289        -7.3821
  48   2.0000      -0.262751        -7.1498
  49   2.0000      -0.248929        -6.7737
  50   2.0000      -0.240524        -6.5450
  51   0.0000       0.051868         1.4114
  52   0.0000       0.078979         2.1491
  53   0.0000       0.090979         2.4757
  54   0.0000       0.098680         2.6852
  55   0.0000       0.103085         2.8051

MULLIKEN ATOMIC CHARGES
-----------------------
   0 C :    0.287883
   1 C :   -0.260636
   2 C :   -0.299284
   3 C :   -0.001544
   4 O :   -0.516447
   5 H :    0.135694
   6 H :    0.142214
   7 H :    0.157592
   8 H :    0.137974
   9 H :    0.172858
  10 H :    0.147702
  11 H :    0.139558
  12 C :   -0.010226
  13 H :    0.129084
  14 H :    0.139476
  15 O :   -0.510510
  16 C :    0.090672
  17 C :    0.085435
  18 C :   -0.327305
  19 C :   -0.010087
  20 O :   -0.504197
  21 H :    0.162460
  22 H :    0.166618
  23 O :   -0.601308
  24 H :    0.158115
  25 H :    0.136434
  26 H :    0.148030
  27 H :    0.146507
  28 H :    0.357239
Sum of atomic charges:   -0.0000000

LOEWDIN ATOMIC CHARGES
----------------------
   0 C :    0.171202
   1 C :   -0.214808
   2 C :   -0.215942
   3 C :   -0.027035
   4 O :   -0.333957
   5 H :    0.093616
   6 H :    0.112560
   7 H :    0.124604
   8 H :    0.112044
   9 H :    0.124416
  10 H :    0.105787
  11 H :    0.100903
  12 C :   -0.053402
  13 H :    0.096022
  14 H :    0.097413
  15 O :   -0.312578
  16 C :    0.022698
  17 C :    0.035877
  18 C :   -0.241894
  19 C :   -0.029894
  20 O :   -0.313347
  21 H :    0.119274
  22 H :    0.119068
  23 O :   -0.408188
  24 H :    0.122494
  25 H :    0.105135
  26 H :    0.104484
  27 H :    0.104880
  28 H :    0.278567

  Mayer bond orders larger than 0.100000
B(  0-C ,  1-C ) :   0.9500 B(  0-C ,  4-O ) :   0.9036 B(  0-C ,  5-H ) :   0.9183
B(  0-C , 15-O ) :   0.8686 B(  1-C ,  2-C ) :   0.9571 B(  1-C ,  6-H ) :   0.9408
B(  1-C ,  7-H ) :   0.9360 B(  2-C ,  3-C ) :   0.9562 B(  2-C ,  8-H ) :   0.9453
B(  2-C ,  9-H ) :   0.9418 B(  3-C ,  4-O ) :   0.8361 B(  3-C , 10-H ) :   0.9359
B(  3-C , 11-H ) :   0.9406 B( 12-C , 13-H ) :   0.9037 B( 12-C , 14-H ) :   0.9135
B( 12-C , 15-O ) :   0.8375 B( 12-C , 16-C ) :   0.9068 B( 16-C , 17-C ) :   0.8756
B( 16-C , 20-O ) :   0.8736 B( 16-C , 21-H ) :   0.9295 B( 17-C , 18-C ) :   0.9239
B( 17-C , 22-H ) :   0.9340 B( 17-C , 23-O ) :   0.8958 B( 18-C , 19-C ) :   0.9392
B( 18-C , 24-H ) :   0.9419 B( 18-C , 25-H ) :   0.9394 B( 19-C , 20-O ) :   0.8512
B( 19-C , 26-H ) :   0.9308 B( 19-C , 27-H ) :   0.9380 B( 23-O , 28-H ) :   0.7983

FINAL SINGLE POINT ENERGY      -652.862632957654

DIPOLE MOMENT
-------------
                                X             Y             Z
Electronic contribution:     -2.10406      -1.47221      -2.25960
Nuclear contribution   :      2.47603       1.19476       2.70844
                        -----------------------------------------
Total Dipole Moment    :      0.37197      -0.27745       0.44883
                        -----------------------------------------
Magnitude (a.u.)       :      0.64559
Magnitude (Debye)      :      1.64096

Rotational constants in cm-1:     0.053125     0.013139     0.012177
Rotational constants in MHz :  1592.659522   393.897363   365.053175

                             ****ORCA TERMINATED NORMALLY****
TOTAL RUN TIME: 0 days 0 hours 28 minutes 44 seconds 10 msec
