                         Program Version 4.2.1 -  RELEASE  -
|  1> # Test redundant internal optimization
|  2> #
|  3> ! RKS B3LYP  Opt TightSCF SmallPrint
|  4>
|  5> %basis
|  6>         Basis "6-31G"
|  7> end
|  8>
|  9> %geom
| 10> Constraints
| 11> { D 4  0  19  14  255.0   C } # D for Dihedral angle
| 12> { D 0  19  14  12  180.0   C } # D for Dihedral angle
| 13> { D 0  4  3  2   C } # D for Dihedral angle
| 14> { D 4  3  2  1   C } # D for Dihedral angle
| 15> { D 3  2  1  0   C } # D for Dihedral angle
| 16> { D 2  1  0  4   C } # D for Dihedral angle
| 17> { D 1  0  4  3   C } # D for Dihedral angle
| 18> { D 14  15  16  17   C } # D for Dihedral angle
| 19> { D 15  16  17  12   C } # D for Dihedral angle
| 20> { D 16  17  12  14   C } # D for Dihedral angle
| 21> { D 17  12  14  15   C } # D for Dihedral angle
| 22> { D 12  14  15  16   C } # D for Dihedral angle
| 23> end
| 24> end
| 25>
| 26>
| 27> #%pal
| 28> #nprocs 8
| 29> #end
| 30>
| 31> * xyz 0 1
| 32> C  -21.048   26.222   46.251
| 33> C  -20.361   27.558   45.944
| 34> C  -20.329   28.222   47.341
| 35> C  -20.110   27.022   48.296
| 36> O  -20.473   25.807   47.535
| 37> H  -20.833   25.428   45.533
| 38> H  -19.344   27.382   45.576
| 39> H  -20.898   28.157   45.201
| 40> H  -19.543   28.978   47.434
| 41> H  -21.289   28.710   47.548
| 42> H  -20.733   27.082   49.195
| 43> H  -19.064   26.913   48.597
| 44> C  -24.735   25.590   45.946
| 45> H  -25.329   24.681   45.765
| 46> C  -23.236   25.322   45.767
| 47> C  -23.094   25.349   44.228
| 48> C  -24.116   26.431   43.798
| 49> O  -25.042   26.611   44.938
| 50> H  -25.008   26.008   46.916
| 51> O  -22.472   26.381   46.366
| 52> H  -22.914   24.372   46.207
| 53> H  -22.077   25.582   43.898
| 54> H  -23.366   24.373   43.806
| 55> H  -24.690   26.140   42.912
| 56> H  -23.644   27.401   43.611
| 57> *
| 58>
| 59>                          ****END OF INPUT****
 Total Charge           Charge          ....    0
 Multiplicity           Mult            ....    1
 Number of Electrons    NEL             ....   86
FINAL SINGLE POINT ENERGY      -538.430950264965
FINAL SINGLE POINT ENERGY      -538.433525481276
FINAL SINGLE POINT ENERGY      -538.433802347681
FINAL SINGLE POINT ENERGY      -538.433829003731
FINAL SINGLE POINT ENERGY      -538.433835637704
                    ***********************HURRAY********************

CARTESIAN COORDINATES (ANGSTROEM)
---------------------------------
  C    -20.960587   26.203163   46.222633
  C    -20.368365   27.589310   45.964954
  C    -20.412453   28.221644   47.376558
  C    -20.126551   27.019027   48.303807
  O    -20.390579   25.806101   47.490952
  H    -20.685983   25.428373   45.502197
  H    -19.334074   27.485210   45.615852
  H    -20.941465   28.150459   45.224072
  H    -19.682693   29.027252   47.500850
  H    -21.412003   28.624186   47.564789
  H    -20.769850   26.997936   49.187087
  H    -19.079635   26.964166   48.617653
  C    -24.674793   25.679991   45.972628
  H    -25.337308   24.810850   45.849326
  C    -23.217851   25.287518   45.727319
  C    -23.153361   25.274987   44.188960
  C    -24.102934   26.427443   43.782577
  O    -24.950245   26.702349   44.961290
  H    -24.827131   26.132498   46.952802
  O    -22.396889   26.339046   46.320249
  H    -22.956679   24.318710   46.172365
  H    -22.139143   25.407353   43.802091
  H    -23.524161   24.309853   43.824147
  H    -24.740415   26.164192   42.931415
  H    -23.562851   27.350381   43.552424

 Multiplicity           Mult            ....    1
 Number of Electrons    NEL             ....   86
 Basis Dimension        Dim             ....  127

ORBITAL ENERGIES
----------------

  NO   OCC          E(Eh)            E(eV)
   0   2.0000     -19.140604      -520.8423
   1   2.0000     -19.135514      -520.7038
   2   2.0000     -19.128377      -520.5096
   3   2.0000     -10.277702      -279.6705
   4   2.0000     -10.241281      -278.6794
   5   2.0000     -10.223063      -278.1837
   6   2.0000     -10.221741      -278.1477
   7   2.0000     -10.221567      -278.1430
   8   2.0000     -10.190630      -277.3011
   9   2.0000     -10.183224      -277.0996
  10   2.0000     -10.182072      -277.0683
  11   2.0000      -1.051597       -28.6154
  12   2.0000      -1.014441       -27.6043
  13   2.0000      -0.988735       -26.9048
  14   2.0000      -0.790248       -21.5037
  15   2.0000      -0.776439       -21.1280
  16   2.0000      -0.744239       -20.2518
  17   2.0000      -0.718729       -19.5576
  18   2.0000      -0.610863       -16.6224
  19   2.0000      -0.599666       -16.3177
  20   2.0000      -0.595262       -16.1979
  21   2.0000      -0.572832       -15.5875
  22   2.0000      -0.524291       -14.2667
  23   2.0000      -0.501892       -13.6572
  24   2.0000      -0.483566       -13.1585
  25   2.0000      -0.478256       -13.0140
  26   2.0000      -0.456224       -12.4145
  27   2.0000      -0.439689       -11.9645
  28   2.0000      -0.424592       -11.5537
  29   2.0000      -0.420013       -11.4291
  30   2.0000      -0.400275       -10.8920
  31   2.0000      -0.381712       -10.3869
  32   2.0000      -0.380432       -10.3521
  33   2.0000      -0.368444       -10.0259
  34   2.0000      -0.359188        -9.7740
  35   2.0000      -0.353466        -9.6183
  36   2.0000      -0.343779        -9.3547
  37   2.0000      -0.318304        -8.6615
  38   2.0000      -0.304522        -8.2865
  39   2.0000      -0.297867        -8.1054
  40   2.0000      -0.266756        -7.2588
  41   2.0000      -0.246268        -6.7013
  42   2.0000      -0.234337        -6.3766
  43   0.0000       0.076470         2.0809
  44   0.0000       0.092152         2.5076
  45   0.0000       0.099150         2.6980
  46   0.0000       0.107887         2.9358
  47   0.0000       0.117152         3.1879

MULLIKEN ATOMIC CHARGES
-----------------------
   0 C :    0.282953
   1 C :   -0.253852
   2 C :   -0.300034
   3 C :   -0.000627
   4 O :   -0.509212
   5 H :    0.138311
   6 H :    0.140853
   7 H :    0.151383
   8 H :    0.139806
   9 H :    0.167868
  10 H :    0.149301
  11 H :    0.139372
  12 C :    0.000757
  13 H :    0.127545
  14 C :    0.070653
  15 C :   -0.299215
  16 C :    0.006826
  17 O :   -0.518861
  18 H :    0.168757
  19 O :   -0.513181
  20 H :    0.139821
  21 H :    0.147027
  22 H :    0.141767
  23 H :    0.136709
  24 H :    0.145275
Sum of atomic charges:   -0.0000000

LOEWDIN ATOMIC CHARGES
----------------------
   0 C :    0.171687
   1 C :   -0.218296
   2 C :   -0.215991
   3 C :   -0.026679
   4 O :   -0.324176
   5 H :    0.096957
   6 H :    0.111421
   7 H :    0.120358
   8 H :    0.113088
   9 H :    0.121919
  10 H :    0.106569
  11 H :    0.101014
  12 C :   -0.032329
  13 H :    0.092664
  14 C :    0.039417
  15 C :   -0.237408
  16 C :   -0.027614
  17 O :   -0.328397
  18 H :    0.124253
  19 O :   -0.323287
  20 H :    0.102010
  21 H :    0.116123
  22 H :    0.113906
  23 H :    0.098978
  24 H :    0.103813

  Mayer bond orders larger than 0.100000
B(  0-C ,  1-C ) :   0.9443 B(  0-C ,  4-O ) :   0.9194 B(  0-C ,  5-H ) :   0.9167
B(  0-C , 19-O ) :   0.8504 B(  1-C ,  2-C ) :   0.9579 B(  1-C ,  6-H ) :   0.9388
B(  1-C ,  7-H ) :   0.9367 B(  2-C ,  3-C ) :   0.9545 B(  2-C ,  8-H ) :   0.9453
B(  2-C ,  9-H ) :   0.9428 B(  3-C ,  4-O ) :   0.8388 B(  3-C , 10-H ) :   0.9352
B(  3-C , 11-H ) :   0.9401 B( 12-C , 13-H ) :   0.9162 B( 12-C , 14-C ) :   0.9372
B( 12-C , 17-O ) :   0.8668 B( 12-C , 18-H ) :   0.9306 B( 14-C , 15-C ) :   0.9302
B( 14-C , 19-O ) :   0.8358 B( 14-C , 20-H ) :   0.9201 B( 15-C , 16-C ) :   0.9420
B( 15-C , 21-H ) :   0.9363 B( 15-C , 22-H ) :   0.9371 B( 16-C , 17-O ) :   0.8630
B( 16-C , 23-H ) :   0.9327 B( 16-C , 24-H ) :   0.9364

FINAL SINGLE POINT ENERGY      -538.433836466254

DIPOLE MOMENT
-------------
                                X             Y             Z
Electronic contribution:     -1.80726      -1.51138       1.49857
Nuclear contribution   :      2.45930       1.30354      -2.01198
                        -----------------------------------------
Total Dipole Moment    :      0.65204      -0.20784      -0.51341
                        -----------------------------------------
Magnitude (a.u.)       :      0.85554
Magnitude (Debye)      :      2.17460

Rotational constants in cm-1:     0.081088     0.020196     0.019768
Rotational constants in MHz :  2430.945616   605.459197   592.637858

                             ****ORCA TERMINATED NORMALLY****
TOTAL RUN TIME: 0 days 0 hours 5 minutes 45 seconds 663 msec
