                         Program Version 4.2.0 -  RELEASE  -
|  1> # Test redundant internal optimization
|  2> #
|  3> ! RKS B3LYP  Opt TightSCF SmallPrint
|  4>
|  5> %basis
|  6>         Basis "6-31G"
|  7> end
|  8>
|  9> %geom
| 10> Constraints
| 11> { D 4  0  15  12  30.0   C } # D for Dihedral angle
| 12> { D 0  15  12  16  300.0   C } # D for Dihedral angle
| 13> { D 0  4  3  2   C } # D for Dihedral angle
| 14> { D 4  3  2  1   C } # D for Dihedral angle
| 15> { D 3  2  1  0   C } # D for Dihedral angle
| 16> { D 2  1  0  4   C } # D for Dihedral angle
| 17> { D 1  0  4  3   C } # D for Dihedral angle
| 18> { D 16  20  19  18   C } # D for Dihedral angle
| 19> { D 20  19  18  17   C } # D for Dihedral angle
| 20> { D 19  18  17  16   C } # D for Dihedral angle
| 21> { D 18  17  16  20   C } # D for Dihedral angle
| 22> { D 17  16  20  19   C } # D for Dihedral angle
| 23> { D 15  12  16  20   C } # D for Dihedral angle
| 24> end
| 25> end
| 26>
| 27>
| 28> #%pal
| 29> #nprocs 8
| 30> #end
| 31>
| 32> * xyz 0 1
| 33> C  -21.048   26.222   46.251
| 34> C  -20.361   27.558   45.944
| 35> C  -20.329   28.222   47.341
| 36> C  -20.110   27.022   48.296
| 37> O  -20.473   25.807   47.535
| 38> H  -20.833   25.428   45.533
| 39> H  -19.344   27.382   45.576
| 40> H  -20.898   28.157   45.201
| 41> H  -19.543   28.978   47.434
| 42> H  -21.289   28.710   47.548
| 43> H  -20.733   27.082   49.195
| 44> H  -19.064   26.913   48.597
| 45> C  -23.091   26.824   47.779
| 46> H  -22.651   27.794   48.041
| 47> H  -24.184   26.932   47.778
| 48> O  -22.586   26.394   46.375
| 49> C  -22.719   25.803   48.890
| 50> C  -23.331   26.200   50.238
| 51> C  -24.793   25.720   50.072
| 52> C  -24.646   24.432   49.224
| 53> O  -23.307   24.491   48.599
| 54> H  -21.635   25.672   48.907
| 55> O  -22.629   25.430   51.390
| 56> H  -23.257   27.273   50.445
| 57> H  -25.290   25.534   51.030
| 58> H  -25.377   26.474   49.532
| 59> H  -25.406   24.360   48.437
| 60> H  -24.678   23.525   49.833
| 61> H  -22.691   24.352   51.204
| 62> *
| 63>
| 64>                          ****END OF INPUT****
 Total Charge           Charge          ....    0
 Multiplicity           Mult            ....    1
 Number of Electrons    NEL             ....  102
FINAL SINGLE POINT ENERGY      -652.805571595176
FINAL SINGLE POINT ENERGY      -652.833091201711
FINAL SINGLE POINT ENERGY      -652.849271754028
FINAL SINGLE POINT ENERGY      -652.852086153196
FINAL SINGLE POINT ENERGY      -652.852533985354
FINAL SINGLE POINT ENERGY      -652.852577860134
FINAL SINGLE POINT ENERGY      -652.852582192922
                    ***********************HURRAY********************

CARTESIAN COORDINATES (ANGSTROEM)
---------------------------------
  C    -21.089360   26.323193   46.353720
  C    -20.419075   27.629230   45.910051
  C    -20.042615   28.275466   47.271953
  C    -19.681178   27.051027   48.144605
  O    -20.276719   25.870247   47.460612
  H    -21.040825   25.533360   45.602629
  H    -19.519703   27.392189   45.330103
  H    -21.084172   28.246327   45.302361
  H    -19.207565   28.977900   47.188224
  H    -20.896831   28.821538   47.685558
  H    -20.077712   27.111499   49.162933
  H    -18.603675   26.870054   48.193423
  C    -23.121898   26.781128   47.863650
  H    -22.831780   27.792655   48.192186
  H    -24.190500   26.798930   47.632123
  O    -22.517105   26.455993   46.586170
  C    -22.842288   25.799922   49.011516
  C    -23.579613   26.174786   50.306242
  C    -24.998076   25.600012   50.040203
  C    -24.704439   24.313667   49.227455
  O    -23.325809   24.450385   48.702107
  H    -21.770909   25.698218   49.171455
  O    -22.948817   25.548061   51.456849
  H    -23.582674   27.243821   50.526115
  H    -25.517361   25.402880   50.981338
  H    -25.594474   26.313862   49.460455
  H    -25.394024   24.176014   48.389044
  H    -24.726790   23.412795   49.848737
  H    -22.710012   24.625842   51.223183

 Multiplicity           Mult            ....    1
 Number of Electrons    NEL             ....  102
 Basis Dimension        Dim             ....  149

ORBITAL ENERGIES
----------------

  NO   OCC          E(Eh)            E(eV)
   0   2.0000     -19.150024      -521.0986
   1   2.0000     -19.137533      -520.7587
   2   2.0000     -19.137228      -520.7504
   3   2.0000     -19.135754      -520.7103
   4   2.0000     -10.278352      -279.6882
   5   2.0000     -10.241232      -278.6781
   6   2.0000     -10.234028      -278.4821
   7   2.0000     -10.233784      -278.4754
   8   2.0000     -10.226496      -278.2771
   9   2.0000     -10.226384      -278.2741
  10   2.0000     -10.194612      -277.4095
  11   2.0000     -10.188035      -277.2305
  12   2.0000     -10.187023      -277.2030
  13   2.0000      -1.052197       -28.6317
  14   2.0000      -1.032466       -28.0948
  15   2.0000      -1.003438       -27.3049
  16   2.0000      -0.993021       -27.0215
  17   2.0000      -0.791183       -21.5292
  18   2.0000      -0.782503       -21.2930
  19   2.0000      -0.766574       -20.8595
  20   2.0000      -0.734639       -19.9906
  21   2.0000      -0.675970       -18.3941
  22   2.0000      -0.606341       -16.4994
  23   2.0000      -0.604093       -16.4382
  24   2.0000      -0.600715       -16.3463
  25   2.0000      -0.570120       -15.5138
  26   2.0000      -0.519029       -14.1235
  27   2.0000      -0.513882       -13.9834
  28   2.0000      -0.501505       -13.6466
  29   2.0000      -0.488046       -13.2804
  30   2.0000      -0.470629       -12.8065
  31   2.0000      -0.462388       -12.5822
  32   2.0000      -0.448632       -12.2079
  33   2.0000      -0.441801       -12.0220
  34   2.0000      -0.419818       -11.4238
  35   2.0000      -0.413438       -11.2502
  36   2.0000      -0.400978       -10.9112
  37   2.0000      -0.390860       -10.6358
  38   2.0000      -0.377648       -10.2763
  39   2.0000      -0.372240       -10.1292
  40   2.0000      -0.363217        -9.8836
  41   2.0000      -0.361453        -9.8356
  42   2.0000      -0.345909        -9.4127
  43   2.0000      -0.336751        -9.1635
  44   2.0000      -0.321432        -8.7466
  45   2.0000      -0.311266        -8.4700
  46   2.0000      -0.299803        -8.1581
  47   2.0000      -0.269383        -7.3303
  48   2.0000      -0.262062        -7.1311
  49   2.0000      -0.254934        -6.9371
  50   2.0000      -0.233457        -6.3527
  51   0.0000       0.063173         1.7190
  52   0.0000       0.076841         2.0909
  53   0.0000       0.089884         2.4459
  54   0.0000       0.094167         2.5624
  55   0.0000       0.096250         2.6191

MULLIKEN ATOMIC CHARGES
-----------------------
   0 C :    0.304997
   1 C :   -0.264537
   2 C :   -0.316099
   3 C :   -0.025897
   4 O :   -0.503843
   5 H :    0.170264
   6 H :    0.149523
   7 H :    0.156921
   8 H :    0.149691
   9 H :    0.151370
  10 H :    0.144660
  11 H :    0.156285
  12 C :    0.007383
  13 H :    0.109072
  14 H :    0.154724
  15 O :   -0.528571
  16 C :    0.041147
  17 C :    0.073411
  18 C :   -0.302340
  19 C :   -0.027777
  20 O :   -0.509969
  21 H :    0.197147
  22 O :   -0.604314
  23 H :    0.147908
  24 H :    0.163938
  25 H :    0.143795
  26 H :    0.149774
  27 H :    0.144062
  28 H :    0.367276
Sum of atomic charges:   -0.0000000

LOEWDIN ATOMIC CHARGES
----------------------
   0 C :    0.182763
   1 C :   -0.225451
   2 C :   -0.222267
   3 C :   -0.037628
   4 O :   -0.314958
   5 H :    0.114637
   6 H :    0.116809
   7 H :    0.123299
   8 H :    0.118128
   9 H :    0.109697
  10 H :    0.101104
  11 H :    0.109193
  12 C :   -0.034831
  13 H :    0.083930
  14 H :    0.114749
  15 O :   -0.324682
  16 C :   -0.001923
  17 C :    0.032798
  18 C :   -0.243497
  19 C :   -0.038807
  20 O :   -0.320473
  21 H :    0.130127
  22 O :   -0.415901
  23 H :    0.112287
  24 H :    0.126629
  25 H :    0.112098
  26 H :    0.105740
  27 H :    0.101708
  28 H :    0.284723

  Mayer bond orders larger than 0.100000
B(  0-C ,  1-C ) :   0.9176 B(  0-C ,  4-O ) :   0.8987 B(  0-C ,  5-H ) :   0.9342
B(  0-C , 15-O ) :   0.8712 B(  1-C ,  2-C ) :   0.9552 B(  1-C ,  6-H ) :   0.9350
B(  1-C ,  7-H ) :   0.9377 B(  2-C ,  3-C ) :   0.9495 B(  2-C ,  8-H ) :   0.9441
B(  2-C ,  9-H ) :   0.9429 B(  3-C ,  4-O ) :   0.8362 B(  3-C , 10-H ) :   0.9263
B(  3-C , 11-H ) :   0.9396 B( 12-C , 13-H ) :   0.9036 B( 12-C , 14-H ) :   0.9394
B( 12-C , 15-O ) :   0.8602 B( 12-C , 16-C ) :   0.8798 B( 16-C , 17-C ) :   0.8922
B( 16-C , 20-O ) :   0.8551 B( 16-C , 21-H ) :   0.9016 B( 17-C , 18-C ) :   0.9114
B( 17-C , 22-O ) :   0.8912 B( 17-C , 23-H ) :   0.9328 B( 18-C , 19-C ) :   0.9393
B( 18-C , 24-H ) :   0.9372 B( 18-C , 25-H ) :   0.9337 B( 19-C , 20-O ) :   0.8547
B( 19-C , 26-H ) :   0.9336 B( 19-C , 27-H ) :   0.9382 B( 22-O , 28-H ) :   0.7927

FINAL SINGLE POINT ENERGY      -652.852584242522

DIPOLE MOMENT
-------------
                                X             Y             Z
Electronic contribution:      0.23648      -4.50185      -0.28566
Nuclear contribution   :     -0.33581       5.54229       0.20983
                        -----------------------------------------
Total Dipole Moment    :     -0.09932       1.04044      -0.07583
                        -----------------------------------------
Magnitude (a.u.)       :      1.04792
Magnitude (Debye)      :      2.66359

Rotational constants in cm-1:     0.052591     0.015432     0.014026
Rotational constants in MHz :  1576.635737   462.654185   420.482526

                             ****ORCA TERMINATED NORMALLY****
TOTAL RUN TIME: 0 days 2 hours 10 minutes 42 seconds 978 msec
