                         Program Version 4.2.0 -  RELEASE  -
|  1> # Test redundant internal optimization
|  2> #
|  3> ! RKS B3LYP  Opt TightSCF SmallPrint
|  4>
|  5> %basis
|  6>         Basis "6-31G"
|  7> end
|  8>
|  9> %geom
| 10> Constraints
| 11> { D 4  0  15  12  60.0   C } # D for Dihedral angle
| 12> { D 0  15  12  16  300.0   C } # D for Dihedral angle
| 13> { D 0  4  3  2   C } # D for Dihedral angle
| 14> { D 4  3  2  1   C } # D for Dihedral angle
| 15> { D 3  2  1  0   C } # D for Dihedral angle
| 16> { D 2  1  0  4   C } # D for Dihedral angle
| 17> { D 1  0  4  3   C } # D for Dihedral angle
| 18> { D 16  20  19  18   C } # D for Dihedral angle
| 19> { D 20  19  18  17   C } # D for Dihedral angle
| 20> { D 19  18  17  16   C } # D for Dihedral angle
| 21> { D 18  17  16  20   C } # D for Dihedral angle
| 22> { D 17  16  20  19   C } # D for Dihedral angle
| 23> { D 15  12  16  20   C } # D for Dihedral angle
| 24> end
| 25> end
| 26>
| 27>
| 28> #%pal
| 29> #nprocs 8
| 30> #end
| 31>
| 32> * xyz 0 1
| 33> C  -21.048   26.222   46.251
| 34> C  -20.361   27.558   45.944
| 35> C  -20.329   28.222   47.341
| 36> C  -20.110   27.022   48.296
| 37> O  -20.473   25.807   47.535
| 38> H  -20.833   25.428   45.533
| 39> H  -19.344   27.382   45.576
| 40> H  -20.898   28.157   45.201
| 41> H  -19.543   28.978   47.434
| 42> H  -21.289   28.710   47.548
| 43> H  -20.733   27.082   49.195
| 44> H  -19.064   26.913   48.597
| 45> C  -23.051   27.452   47.413
| 46> H  -22.653   28.435   47.132
| 47> H  -24.146   27.517   47.431
| 48> O  -22.586   26.394   46.375
| 49> C  -22.574   27.127   48.856
| 50> C  -23.145   28.125   49.869
| 51> C  -24.585   27.589   50.059
| 52> C  -24.406   26.054   49.950
| 53> O  -23.102   25.829   49.290
| 54> H  -21.485   27.048   48.864
| 55> H  -22.586   28.070   50.810
| 56> O  -23.111   29.593   49.365
| 57> H  -25.028   27.891   51.014
| 58> H  -25.233   27.961   49.257
| 59> H  -25.195   25.582   49.354
| 60> H  -24.361   25.568   50.928
| 61> H  -23.667   29.674   48.424
| 62> *
| 63>
| 64>                          ****END OF INPUT****
 Total Charge           Charge          ....    0
 Multiplicity           Mult            ....    1
 Number of Electrons    NEL             ....  102
FINAL SINGLE POINT ENERGY      -652.688112233765
FINAL SINGLE POINT ENERGY      -652.750344785264
FINAL SINGLE POINT ENERGY      -652.788884296544
FINAL SINGLE POINT ENERGY      -652.812712738031
FINAL SINGLE POINT ENERGY      -652.826931211474
FINAL SINGLE POINT ENERGY      -652.834423517839
FINAL SINGLE POINT ENERGY      -652.839592306286
FINAL SINGLE POINT ENERGY      -652.842686899362
FINAL SINGLE POINT ENERGY      -652.843368394765
FINAL SINGLE POINT ENERGY      -652.843512924281
FINAL SINGLE POINT ENERGY      -652.844140583328
FINAL SINGLE POINT ENERGY      -652.844142667019
FINAL SINGLE POINT ENERGY      -652.844144084197
FINAL SINGLE POINT ENERGY      -652.844145323618
FINAL SINGLE POINT ENERGY      -652.844146779051
FINAL SINGLE POINT ENERGY      -652.844148763514
FINAL SINGLE POINT ENERGY      -652.844160511597
FINAL SINGLE POINT ENERGY      -652.844163271102
FINAL SINGLE POINT ENERGY      -652.844161770303
                    ***********************HURRAY********************

CARTESIAN COORDINATES (ANGSTROEM)
---------------------------------
  C    -21.069993   26.341802   46.355861
  C    -20.269475   27.542088   45.829019
  C    -19.757239   28.196166   47.147562
  C    -19.506704   26.963191   48.053815
  O    -20.265257   25.844425   47.446392
  H    -21.112346   25.519604   45.639529
  H    -19.429538   27.172197   45.231000
  H    -20.873500   28.213403   45.213379
  H    -18.847175   28.785676   47.001767
  H    -20.517698   28.858662   47.574787
  H    -19.823360   27.105771   49.090537
  H    -18.455098   26.658939   48.054038
  C    -23.087779   27.466189   47.533252
  H    -22.827977   28.510387   47.297301
  H    -24.157290   27.330965   47.342461
  O    -22.483247   26.566231   46.568118
  C    -22.785080   27.226386   49.015017
  C    -23.538215   28.201640   49.936410
  C    -24.940389   27.522751   50.044462
  C    -24.589034   26.018396   50.022428
  O    -23.214416   25.908301   49.471922
  H    -21.713411   27.264206   49.194713
  H    -23.051503   28.218497   50.914012
  O    -23.549091   29.586464   49.509821
  H    -25.474820   27.823180   50.949680
  H    -25.554895   27.805985   49.179196
  H    -25.270236   25.430349   49.399946
  H    -24.566456   25.585434   51.026774
  H    -24.207778   29.722715   48.798801

 Multiplicity           Mult            ....    1
 Number of Electrons    NEL             ....  102
 Basis Dimension        Dim             ....  149

ORBITAL ENERGIES
----------------

  NO   OCC          E(Eh)            E(eV)
   0   2.0000     -19.153657      -521.1975
   1   2.0000     -19.140709      -520.8452
   2   2.0000     -19.136990      -520.7440
   3   2.0000     -19.135285      -520.6976
   4   2.0000     -10.274042      -279.5709
   5   2.0000     -10.247839      -278.8579
   6   2.0000     -10.232004      -278.4270
   7   2.0000     -10.230193      -278.3777
   8   2.0000     -10.229478      -278.3582
   9   2.0000     -10.227210      -278.2965
  10   2.0000     -10.197633      -277.4917
  11   2.0000     -10.190506      -277.2978
  12   2.0000     -10.185552      -277.1630
  13   2.0000      -1.045570       -28.4514
  14   2.0000      -1.035393       -28.1745
  15   2.0000      -1.015429       -27.6312
  16   2.0000      -0.992627       -27.0108
  17   2.0000      -0.785568       -21.3764
  18   2.0000      -0.783645       -21.3241
  19   2.0000      -0.770992       -20.9798
  20   2.0000      -0.732418       -19.9301
  21   2.0000      -0.684180       -18.6175
  22   2.0000      -0.613131       -16.6841
  23   2.0000      -0.607269       -16.5246
  24   2.0000      -0.600782       -16.3481
  25   2.0000      -0.562759       -15.3134
  26   2.0000      -0.525167       -14.2905
  27   2.0000      -0.508168       -13.8280
  28   2.0000      -0.504614       -13.7312
  29   2.0000      -0.492218       -13.3939
  30   2.0000      -0.466952       -12.7064
  31   2.0000      -0.452810       -12.3216
  32   2.0000      -0.448167       -12.1953
  33   2.0000      -0.432187       -11.7604
  34   2.0000      -0.429482       -11.6868
  35   2.0000      -0.418320       -11.3831
  36   2.0000      -0.412203       -11.2166
  37   2.0000      -0.401461       -10.9243
  38   2.0000      -0.379941       -10.3387
  39   2.0000      -0.375097       -10.2069
  40   2.0000      -0.359971        -9.7953
  41   2.0000      -0.357862        -9.7379
  42   2.0000      -0.339887        -9.2488
  43   2.0000      -0.332461        -9.0467
  44   2.0000      -0.316888        -8.6230
  45   2.0000      -0.313378        -8.5274
  46   2.0000      -0.300247        -8.1701
  47   2.0000      -0.273347        -7.4382
  48   2.0000      -0.257144        -6.9972
  49   2.0000      -0.256365        -6.9760
  50   2.0000      -0.233907        -6.3649
  51   0.0000       0.048547         1.3210
  52   0.0000       0.074318         2.0223
  53   0.0000       0.080051         2.1783
  54   0.0000       0.087081         2.3696
  55   0.0000       0.098749         2.6871

MULLIKEN ATOMIC CHARGES
-----------------------
   0 C :    0.307298
   1 C :   -0.277010
   2 C :   -0.320271
   3 C :   -0.019909
   4 O :   -0.496604
   5 H :    0.168772
   6 H :    0.153165
   7 H :    0.148134
   8 H :    0.147313
   9 H :    0.156043
  10 H :    0.149392
  11 H :    0.148499
  12 C :   -0.005145
  13 H :    0.119811
  14 H :    0.146473
  15 O :   -0.524149
  16 C :    0.070597
  17 C :    0.083603
  18 C :   -0.325747
  19 C :   -0.011874
  20 O :   -0.496098
  21 H :    0.163719
  22 H :    0.165498
  23 O :   -0.600632
  24 H :    0.157474
  25 H :    0.134510
  26 H :    0.150470
  27 H :    0.149614
  28 H :    0.357055
Sum of atomic charges:    0.0000000

LOEWDIN ATOMIC CHARGES
----------------------
   0 C :    0.178157
   1 C :   -0.229774
   2 C :   -0.225525
   3 C :   -0.037091
   4 O :   -0.310740
   5 H :    0.114647
   6 H :    0.119615
   7 H :    0.118121
   8 H :    0.117028
   9 H :    0.111425
  10 H :    0.100181
  11 H :    0.105131
  12 C :   -0.047265
  13 H :    0.089362
  14 H :    0.109887
  15 O :   -0.316449
  16 C :    0.006584
  17 C :    0.034416
  18 C :   -0.242065
  19 C :   -0.030215
  20 O :   -0.309164
  21 H :    0.117181
  22 H :    0.118416
  23 O :   -0.409050
  24 H :    0.122470
  25 H :    0.104028
  26 H :    0.105894
  27 H :    0.106363
  28 H :    0.278431

  Mayer bond orders larger than 0.100000
B(  0-C ,  1-C ) :   0.9134 B(  0-C ,  4-O ) :   0.9064 B(  0-C ,  5-H ) :   0.9374
B(  0-C , 15-O ) :   0.8929 B(  1-C ,  2-C ) :   0.9555 B(  1-C ,  6-H ) :   0.9362
B(  1-C ,  7-H ) :   0.9383 B(  2-C ,  3-C ) :   0.9476 B(  2-C ,  8-H ) :   0.9448
B(  2-C ,  9-H ) :   0.9400 B(  3-C ,  4-O ) :   0.8442 B(  3-C , 10-H ) :   0.9156
B(  3-C , 11-H ) :   0.9383 B( 12-C , 13-H ) :   0.8981 B( 12-C , 14-H ) :   0.9388
B( 12-C , 15-O ) :   0.8632 B( 12-C , 16-C ) :   0.8872 B( 16-C , 17-C ) :   0.8660
B( 16-C , 20-O ) :   0.8751 B( 16-C , 21-H ) :   0.9111 B( 17-C , 18-C ) :   0.9250
B( 17-C , 22-H ) :   0.9329 B( 17-C , 23-O ) :   0.8957 B( 18-C , 19-C ) :   0.9372
B( 18-C , 24-H ) :   0.9420 B( 18-C , 25-H ) :   0.9399 B( 19-C , 20-O ) :   0.8532
B( 19-C , 26-H ) :   0.9301 B( 19-C , 27-H ) :   0.9371 B( 23-O , 28-H ) :   0.7978

FINAL SINGLE POINT ENERGY      -652.844162438909

DIPOLE MOMENT
-------------
                                X             Y             Z
Electronic contribution:     -0.51581      -3.46751      -0.24594
Nuclear contribution   :      0.06953       4.60108       0.22599
                        -----------------------------------------
Total Dipole Moment    :     -0.44628       1.13356      -0.01995
                        -----------------------------------------
Magnitude (a.u.)       :      1.21841
Magnitude (Debye)      :      3.09696

Rotational constants in cm-1:     0.046527     0.016405     0.015032
Rotational constants in MHz :  1394.851275   491.808930   450.638779

                             ****ORCA TERMINATED NORMALLY****
TOTAL RUN TIME: 0 days 4 hours 25 minutes 12 seconds 545 msec
