                         Program Version 4.2.0 -  RELEASE  -
|  1> # Test redundant internal optimization
|  2> #
|  3> ! RKS B3LYP  Opt TightSCF SmallPrint
|  4>
|  5> %basis
|  6>         Basis "6-31G"
|  7> end
|  8>
|  9> %geom
| 10> Constraints
| 11> { D 4  0  15  12  330.0   C } # D for Dihedral angle
| 12> { D 0  15  12  16  90.0   C } # D for Dihedral angle
| 13> { D 0  4  3  2   C } # D for Dihedral angle
| 14> { D 4  3  2  1   C } # D for Dihedral angle
| 15> { D 3  2  1  0   C } # D for Dihedral angle
| 16> { D 2  1  0  4   C } # D for Dihedral angle
| 17> { D 1  0  4  3   C } # D for Dihedral angle
| 18> { D 16  20  19  18   C } # D for Dihedral angle
| 19> { D 20  19  18  17   C } # D for Dihedral angle
| 20> { D 19  18  17  16   C } # D for Dihedral angle
| 21> { D 18  17  16  20   C } # D for Dihedral angle
| 22> { D 17  16  20  19   C } # D for Dihedral angle
| 23> { D 15  12  16  20   C } # D for Dihedral angle
| 24> end
| 25> end
| 26>
| 27>
| 28> #%pal
| 29> #nprocs 8
| 30> #end
| 31>
| 32> * xyz 0 1
| 33> C  -21.048   26.222   46.251
| 34> C  -20.361   27.558   45.944
| 35> C  -20.329   28.222   47.341
| 36> C  -20.110   27.022   48.296
| 37> O  -20.473   25.807   47.535
| 38> H  -20.833   25.428   45.533
| 39> H  -19.344   27.382   45.576
| 40> H  -20.898   28.157   45.201
| 41> H  -19.543   28.978   47.434
| 42> H  -21.289   28.710   47.548
| 43> H  -20.733   27.082   49.195
| 44> H  -19.064   26.913   48.597
| 45> C  -23.271   25.476   47.424
| 46> H  -24.293   25.251   47.096
| 47> H  -22.725   24.528   47.520
| 48> O  -22.586   26.394   46.375
| 49> C  -23.342   26.124   48.834
| 50> C  -23.917   25.148   49.867
| 51> C  -22.691   24.255   50.171
| 52> C  -21.503   25.245   50.078
| 53> O  -21.995   26.422   49.330
| 54> H  -23.875   27.075   48.765
| 55> H  -24.231   25.692   50.765
| 56> O  -25.132   24.341   49.333
| 57> H  -22.753   23.768   51.149
| 58> H  -22.600   23.470   49.411
| 59> H  -20.642   24.819   49.550
| 60> H  -21.177   25.599   51.060
| 61> H  -24.842   23.787   48.434
| 62> *
| 63>
| 64>                          ****END OF INPUT****
 Total Charge           Charge          ....    0
 Multiplicity           Mult            ....    1
 Number of Electrons    NEL             ....  102
FINAL SINGLE POINT ENERGY      -652.779724175822
FINAL SINGLE POINT ENERGY      -652.825803152886
FINAL SINGLE POINT ENERGY      -652.849305123129
FINAL SINGLE POINT ENERGY      -652.855324186412
FINAL SINGLE POINT ENERGY      -652.856190779252
FINAL SINGLE POINT ENERGY      -652.856410611313
FINAL SINGLE POINT ENERGY      -652.856445125244
FINAL SINGLE POINT ENERGY      -652.856451796271
FINAL SINGLE POINT ENERGY      -652.856453700580
                    ***********************HURRAY********************

CARTESIAN COORDINATES (ANGSTROEM)
---------------------------------
  C    -21.015029   26.275850   46.284761
  C    -20.500561   27.649780   45.859468
  C    -20.218055   28.315587   47.224212
  C    -19.723749   27.146417   48.100223
  O    -20.174958   25.903597   47.391634
  H    -20.846309   25.488510   45.539380
  H    -19.577596   27.518220   45.283126
  H    -21.228503   28.193275   45.253291
  H    -19.483413   29.124256   47.155036
  H    -21.146936   28.726182   47.632117
  H    -20.158172   27.151231   49.094967
  H    -18.631526   27.081786   48.143821
  C    -23.154531   25.511320   47.444482
  H    -24.160392   25.400968   47.026686
  H    -22.679713   24.517434   47.471235
  O    -22.455801   26.344354   46.486935
  C    -23.318445   26.052066   48.872928
  C    -24.047285   25.044967   49.779602
  C    -22.872536   24.140527   50.267559
  C    -21.705270   25.143169   50.389102
  O    -22.087622   26.337434   49.588837
  H    -23.848955   27.008112   48.815299
  H    -24.490098   25.575413   50.625466
  O    -25.156466   24.339128   49.173304
  H    -23.105248   23.640123   51.210995
  H    -22.660959   23.369823   49.515754
  H    -20.764272   24.752552   49.993692
  H    -21.556431   25.484022   51.417640
  H    -24.831168   23.638896   48.571448

 Multiplicity           Mult            ....    1
 Number of Electrons    NEL             ....  102
 Basis Dimension        Dim             ....  149

ORBITAL ENERGIES
----------------

  NO   OCC          E(Eh)            E(eV)
   0   2.0000     -19.150497      -521.1115
   1   2.0000     -19.141511      -520.8670
   2   2.0000     -19.137468      -520.7570
   3   2.0000     -19.134697      -520.6816
   4   2.0000     -10.270618      -279.4777
   5   2.0000     -10.246007      -278.8080
   6   2.0000     -10.230353      -278.3821
   7   2.0000     -10.230012      -278.3728
   8   2.0000     -10.228827      -278.3405
   9   2.0000     -10.209090      -277.8035
  10   2.0000     -10.195807      -277.4420
  11   2.0000     -10.176183      -276.9080
  12   2.0000     -10.175062      -276.8775
  13   2.0000      -1.042830       -28.3768
  14   2.0000      -1.033776       -28.1305
  15   2.0000      -1.018002       -27.7013
  16   2.0000      -0.986977       -26.8570
  17   2.0000      -0.785102       -21.3637
  18   2.0000      -0.778953       -21.1964
  19   2.0000      -0.763884       -20.7863
  20   2.0000      -0.726961       -19.7816
  21   2.0000      -0.676198       -18.4003
  22   2.0000      -0.612927       -16.6786
  23   2.0000      -0.592063       -16.1109
  24   2.0000      -0.587375       -15.9833
  25   2.0000      -0.566962       -15.4278
  26   2.0000      -0.525328       -14.2949
  27   2.0000      -0.512983       -13.9590
  28   2.0000      -0.491028       -13.3615
  29   2.0000      -0.480164       -13.0659
  30   2.0000      -0.467172       -12.7124
  31   2.0000      -0.453752       -12.3472
  32   2.0000      -0.443101       -12.0574
  33   2.0000      -0.430889       -11.7251
  34   2.0000      -0.422241       -11.4897
  35   2.0000      -0.416060       -11.3216
  36   2.0000      -0.400607       -10.9011
  37   2.0000      -0.392690       -10.6856
  38   2.0000      -0.380434       -10.3521
  39   2.0000      -0.366165        -9.9639
  40   2.0000      -0.350325        -9.5328
  41   2.0000      -0.346440        -9.4271
  42   2.0000      -0.337580        -9.1860
  43   2.0000      -0.330976        -9.0063
  44   2.0000      -0.321459        -8.7474
  45   2.0000      -0.315683        -8.5902
  46   2.0000      -0.294433        -8.0119
  47   2.0000      -0.273528        -7.4431
  48   2.0000      -0.262651        -7.1471
  49   2.0000      -0.250024        -6.8035
  50   2.0000      -0.232010        -6.3133
  51   0.0000       0.052016         1.4154
  52   0.0000       0.077359         2.1050
  53   0.0000       0.090617         2.4658
  54   0.0000       0.102008         2.7758
  55   0.0000       0.106570         2.8999

MULLIKEN ATOMIC CHARGES
-----------------------
   0 C :    0.317475
   1 C :   -0.266979
   2 C :   -0.307170
   3 C :   -0.013489
   4 O :   -0.523516
   5 H :    0.140295
   6 H :    0.142451
   7 H :    0.156900
   8 H :    0.137470
   9 H :    0.160971
  10 H :    0.182539
  11 H :    0.132683
  12 C :   -0.011450
  13 H :    0.157337
  14 H :    0.117578
  15 O :   -0.540327
  16 C :    0.103626
  17 C :    0.080306
  18 C :   -0.322641
  19 C :   -0.006885
  20 O :   -0.522785
  21 H :    0.157082
  22 H :    0.167075
  23 O :   -0.599735
  24 H :    0.157078
  25 H :    0.139948
  26 H :    0.161168
  27 H :    0.145485
  28 H :    0.357507
Sum of atomic charges:   -0.0000000

LOEWDIN ATOMIC CHARGES
----------------------
   0 C :    0.181162
   1 C :   -0.216416
   2 C :   -0.216380
   3 C :   -0.037630
   4 O :   -0.326100
   5 H :    0.091351
   6 H :    0.112452
   7 H :    0.124001
   8 H :    0.112276
   9 H :    0.117953
  10 H :    0.122286
  11 H :    0.096349
  12 C :   -0.046730
  13 H :    0.117630
  14 H :    0.088747
  15 O :   -0.336354
  16 C :    0.011303
  17 C :    0.035034
  18 C :   -0.239280
  19 C :   -0.029206
  20 O :   -0.313960
  21 H :    0.114540
  22 H :    0.118764
  23 O :   -0.406550
  24 H :    0.122501
  25 H :    0.106979
  26 H :    0.112432
  27 H :    0.103993
  28 H :    0.278854

  Mayer bond orders larger than 0.100000
B(  0-C ,  1-C ) :   0.9400 B(  0-C ,  4-O ) :   0.9238 B(  0-C ,  5-H ) :   0.9291
B(  0-C , 15-O ) :   0.8384 B(  1-C ,  2-C ) :   0.9599 B(  1-C ,  6-H ) :   0.9389
B(  1-C ,  7-H ) :   0.9368 B(  2-C ,  3-C ) :   0.9654 B(  2-C ,  8-H ) :   0.9450
B(  2-C ,  9-H ) :   0.9426 B(  3-C ,  4-O ) :   0.8148 B(  3-C , 10-H ) :   0.9095
B(  3-C , 11-H ) :   0.9398 B( 12-C , 13-H ) :   0.9184 B( 12-C , 14-H ) :   0.9226
B( 12-C , 15-O ) :   0.8578 B( 12-C , 16-C ) :   0.8875 B( 16-C , 17-C ) :   0.8664
B( 16-C , 20-O ) :   0.8589 B( 16-C , 21-H ) :   0.9318 B( 17-C , 18-C ) :   0.9236
B( 17-C , 22-H ) :   0.9331 B( 17-C , 23-O ) :   0.8994 B( 18-C , 19-C ) :   0.9448
B( 18-C , 24-H ) :   0.9419 B( 18-C , 25-H ) :   0.9398 B( 19-C , 20-O ) :   0.8264
B( 19-C , 26-H ) :   0.9249 B( 19-C , 27-H ) :   0.9382 B( 23-O , 28-H ) :   0.7969

FINAL SINGLE POINT ENERGY      -652.856454063427

DIPOLE MOMENT
-------------
                                X             Y             Z
Electronic contribution:     -2.93540      -1.10167      -0.80255
Nuclear contribution   :      3.41162       0.70632       1.12458
                        -----------------------------------------
Total Dipole Moment    :      0.47622      -0.39535       0.32203
                        -----------------------------------------
Magnitude (a.u.)       :      0.69770
Magnitude (Debye)      :      1.77342

Rotational constants in cm-1:     0.051374     0.017291     0.014804
Rotational constants in MHz :  1540.146352   518.375342   443.800388

                             ****ORCA TERMINATED NORMALLY****
TOTAL RUN TIME: 0 days 0 hours 30 minutes 36 seconds 550 msec
