                         Program Version 4.2.0 -  RELEASE  -
|  1> # Test redundant internal optimization
|  2> #
|  3> ! RKS B3LYP  Opt TightSCF SmallPrint
|  4>
|  5> %basis
|  6>         Basis "6-31G"
|  7> end
|  8>
|  9> %geom
| 10> Constraints
| 11> { D 4  0  15  12  135.0   C } # D for Dihedral angle
| 12> { D 0  15  12  16  60.0   C } # D for Dihedral angle
| 13> { D 0  4  3  2   C } # D for Dihedral angle
| 14> { D 4  3  2  1   C } # D for Dihedral angle
| 15> { D 3  2  1  0   C } # D for Dihedral angle
| 16> { D 2  1  0  4   C } # D for Dihedral angle
| 17> { D 1  0  4  3   C } # D for Dihedral angle
| 18> { D 16  20  19  18   C } # D for Dihedral angle
| 19> { D 20  19  18  17   C } # D for Dihedral angle
| 20> { D 19  18  17  16   C } # D for Dihedral angle
| 21> { D 18  17  16  20   C } # D for Dihedral angle
| 22> { D 17  16  20  19   C } # D for Dihedral angle
| 23> { D 15  12  16  20   C } # D for Dihedral angle
| 24> end
| 25> end
| 26>
| 27>
| 28> #%pal
| 29> #nprocs 8
| 30> #end
| 31>
| 32> * xyz 0 1
| 33> C  -21.048   26.222   46.251
| 34> C  -20.361   27.558   45.944
| 35> C  -20.329   28.222   47.341
| 36> C  -20.110   27.022   48.296
| 37> O  -20.473   25.807   47.535
| 38> H  -20.833   25.428   45.533
| 39> H  -19.344   27.382   45.576
| 40> H  -20.898   28.157   45.201
| 41> H  -19.543   28.978   47.434
| 42> H  -21.289   28.710   47.548
| 43> H  -20.733   27.082   49.195
| 44> H  -19.064   26.913   48.597
| 45> C  -23.162   27.680   45.721
| 46> H  -24.248   27.708   45.872
| 47> H  -22.727   28.574   46.185
| 48> O  -22.586   26.394   46.375
| 49> C  -22.879   27.755   44.194
| 50> C  -23.596   26.629   43.440
| 51> C  -25.040   27.178   43.356
| 52> C  -24.828   28.704   43.192
| 53> O  -23.443   28.985   43.629
| 54> H  -21.801   27.793   44.032
| 55> H  -23.167   26.516   42.438
| 56> O  -23.513   25.259   44.166
| 57> H  -25.612   26.745   42.529
| 58> H  -25.580   26.961   44.286
| 59> H  -25.522   29.292   43.800
| 60> H  -24.909   29.027   42.151
| 61> H  -23.938   25.349   45.172
| 62> *
| 63>
| 64>                          ****END OF INPUT****
 Total Charge           Charge          ....    0
 Multiplicity           Mult            ....    1
 Number of Electrons    NEL             ....  102
FINAL SINGLE POINT ENERGY      -652.814845180784
FINAL SINGLE POINT ENERGY      -652.842864968400
FINAL SINGLE POINT ENERGY      -652.852347168184
FINAL SINGLE POINT ENERGY      -652.854584242738
FINAL SINGLE POINT ENERGY      -652.855222287620
FINAL SINGLE POINT ENERGY      -652.855391857402
FINAL SINGLE POINT ENERGY      -652.855431200531
FINAL SINGLE POINT ENERGY      -652.855435472121
                    ***********************HURRAY********************

CARTESIAN COORDINATES (ANGSTROEM)
---------------------------------
  C    -21.107870   26.266612   46.297081
  C    -20.171159   27.435862   45.982257
  C    -20.141443   28.207248   47.333772
  C    -20.225739   27.060563   48.365312
  O    -20.733882   25.883454   47.625142
  H    -20.995443   25.389165   45.659799
  H    -19.181481   27.021482   45.759391
  H    -20.465769   28.064400   45.143276
  H    -19.233151   28.805780   47.447987
  H    -21.002183   28.878755   47.416349
  H    -20.906409   27.273994   49.193400
  H    -19.247206   26.780136   48.765203
  C    -23.174495   27.750113   45.691679
  H    -24.232042   27.644099   45.943879
  H    -22.812064   28.682128   46.142438
  O    -22.548183   26.582505   46.320838
  C    -22.972231   27.830374   44.169347
  C    -23.625001   26.672090   43.394597
  C    -25.116022   27.117053   43.361424
  C    -25.024245   28.651692   43.240803
  O    -23.637084   29.027820   43.658666
  H    -21.918540   27.938809   43.913651
  H    -23.225358   26.642247   42.376909
  O    -23.393889   25.359243   43.947594
  H    -25.655834   26.658588   42.528817
  H    -25.608082   26.804535   44.289359
  H    -25.737437   29.182844   43.877894
  H    -25.141968   29.000539   42.211201
  H    -23.341791   25.417871   44.930938

 Multiplicity           Mult            ....    1
 Number of Electrons    NEL             ....  102
 Basis Dimension        Dim             ....  149

ORBITAL ENERGIES
----------------

  NO   OCC          E(Eh)            E(eV)
   0   2.0000     -19.154664      -521.2249
   1   2.0000     -19.146250      -520.9959
   2   2.0000     -19.146238      -520.9956
   3   2.0000     -19.126413      -520.4562
   4   2.0000     -10.289704      -279.9971
   5   2.0000     -10.241217      -278.6777
   6   2.0000     -10.237916      -278.5879
   7   2.0000     -10.237519      -278.5771
   8   2.0000     -10.231847      -278.4227
   9   2.0000     -10.231737      -278.4197
  10   2.0000     -10.199010      -277.5292
  11   2.0000     -10.197759      -277.4951
  12   2.0000     -10.185905      -277.1726
  13   2.0000      -1.059456       -28.8293
  14   2.0000      -1.030611       -28.0443
  15   2.0000      -1.007206       -27.4075
  16   2.0000      -0.996594       -27.1187
  17   2.0000      -0.795215       -21.6389
  18   2.0000      -0.778730       -21.1903
  19   2.0000      -0.771484       -20.9931
  20   2.0000      -0.742231       -20.1971
  21   2.0000      -0.685636       -18.6571
  22   2.0000      -0.610720       -16.6185
  23   2.0000      -0.607327       -16.5262
  24   2.0000      -0.602504       -16.3950
  25   2.0000      -0.574752       -15.6398
  26   2.0000      -0.538658       -14.6576
  27   2.0000      -0.513312       -13.9679
  28   2.0000      -0.504269       -13.7219
  29   2.0000      -0.491419       -13.3722
  30   2.0000      -0.474502       -12.9119
  31   2.0000      -0.462413       -12.5829
  32   2.0000      -0.446255       -12.1432
  33   2.0000      -0.440920       -11.9981
  34   2.0000      -0.428224       -11.6526
  35   2.0000      -0.419727       -11.4214
  36   2.0000      -0.409739       -11.1496
  37   2.0000      -0.400991       -10.9115
  38   2.0000      -0.389306       -10.5936
  39   2.0000      -0.378829       -10.3085
  40   2.0000      -0.362557        -9.8657
  41   2.0000      -0.361553        -9.8384
  42   2.0000      -0.353813        -9.6278
  43   2.0000      -0.339497        -9.2382
  44   2.0000      -0.322736        -8.7821
  45   2.0000      -0.308885        -8.4052
  46   2.0000      -0.300435        -8.1752
  47   2.0000      -0.278147        -7.5688
  48   2.0000      -0.263378        -7.1669
  49   2.0000      -0.257701        -7.0124
  50   2.0000      -0.241902        -6.5825
  51   0.0000       0.055845         1.5196
  52   0.0000       0.067772         1.8442
  53   0.0000       0.085163         2.3174
  54   0.0000       0.094303         2.5661
  55   0.0000       0.102197         2.7809

MULLIKEN ATOMIC CHARGES
-----------------------
   0 C :    0.315956
   1 C :   -0.307547
   2 C :   -0.307287
   3 C :   -0.001729
   4 O :   -0.493042
   5 H :    0.167757
   6 H :    0.160650
   7 H :    0.155012
   8 H :    0.149224
   9 H :    0.157011
  10 H :    0.154200
  11 H :    0.147775
  12 C :   -0.035323
  13 H :    0.166192
  14 H :    0.149377
  15 O :   -0.551674
  16 C :    0.045345
  17 C :    0.108098
  18 C :   -0.306761
  19 C :   -0.019511
  20 O :   -0.520623
  21 H :    0.158789
  22 H :    0.152674
  23 O :   -0.628798
  24 H :    0.155885
  25 H :    0.145611
  26 H :    0.145882
  27 H :    0.149563
  28 H :    0.387295
Sum of atomic charges:   -0.0000000

LOEWDIN ATOMIC CHARGES
----------------------
   0 C :    0.182647
   1 C :   -0.232641
   2 C :   -0.217976
   3 C :   -0.027361
   4 O :   -0.301687
   5 H :    0.111546
   6 H :    0.124731
   7 H :    0.118246
   8 H :    0.118299
   9 H :    0.112624
  10 H :    0.109042
  11 H :    0.105699
  12 C :   -0.050229
  13 H :    0.118649
  14 H :    0.104402
  15 O :   -0.345321
  16 C :    0.000593
  17 C :    0.039147
  18 C :   -0.239076
  19 C :   -0.031543
  20 O :   -0.324784
  21 H :    0.109212
  22 H :    0.110283
  23 O :   -0.426027
  24 H :    0.123349
  25 H :    0.111200
  26 H :    0.103836
  27 H :    0.106869
  28 H :    0.286271

  Mayer bond orders larger than 0.100000
B(  0-C ,  1-C ) :   0.9368 B(  0-C ,  4-O ) :   0.9345 B(  0-C ,  5-H ) :   0.9217
B(  0-C , 15-O ) :   0.8044 B(  1-C ,  2-C ) :   0.9487 B(  1-C ,  6-H ) :   0.9333
B(  1-C ,  7-H ) :   0.9177 B(  2-C ,  3-C ) :   0.9508 B(  2-C ,  8-H ) :   0.9449
B(  2-C ,  9-H ) :   0.9404 B(  3-C ,  4-O ) :   0.8349 B(  3-C , 10-H ) :   0.9346
B(  3-C , 11-H ) :   0.9392 B( 12-C , 13-H ) :   0.9351 B( 12-C , 14-H ) :   0.9157
B( 12-C , 15-O ) :   0.8120 B( 12-C , 16-C ) :   0.8795 B( 16-C , 17-C ) :   0.9003
B( 16-C , 20-O ) :   0.8504 B( 16-C , 21-H ) :   0.9167 B( 17-C , 18-C ) :   0.9028
B( 17-C , 22-H ) :   0.9345 B( 17-C , 23-O ) :   0.9321 B( 18-C , 19-C ) :   0.9382
B( 18-C , 24-H ) :   0.9436 B( 18-C , 25-H ) :   0.9430 B( 19-C , 20-O ) :   0.8320
B( 19-C , 26-H ) :   0.9336 B( 19-C , 27-H ) :   0.9390 B( 23-O , 28-H ) :   0.7315

FINAL SINGLE POINT ENERGY      -652.855435993985

DIPOLE MOMENT
-------------
                                X             Y             Z
Electronic contribution:     -0.36800      -3.49402      -0.04820
Nuclear contribution   :      0.60131       4.63243       0.10936
                        -----------------------------------------
Total Dipole Moment    :      0.23331       1.13842       0.06116
                        -----------------------------------------
Magnitude (a.u.)       :      1.16369
Magnitude (Debye)      :      2.95786

Rotational constants in cm-1:     0.058378     0.014489     0.012974
Rotational constants in MHz :  1750.122366   434.366393   388.962474

                             ****ORCA TERMINATED NORMALLY****
TOTAL RUN TIME: 0 days 0 hours 20 minutes 42 seconds 972 msec
