                         Program Version 4.2.1 -  RELEASE  -
|  1> # Test redundant internal optimization
|  2> #
|  3> ! RKS B3LYP  Opt TightSCF SmallPrint
|  4>
|  5> %basis
|  6>         Basis "6-31G"
|  7> end
|  8>
|  9> %geom
| 10> Constraints
| 11> { D 4  0  19  14  0.0   C } # D for Dihedral angle
| 12> { D 0  19  14  12  105.0   C } # D for Dihedral angle
| 13> { D 0  4  3  2   C } # D for Dihedral angle
| 14> { D 4  3  2  1   C } # D for Dihedral angle
| 15> { D 3  2  1  0   C } # D for Dihedral angle
| 16> { D 2  1  0  4   C } # D for Dihedral angle
| 17> { D 1  0  4  3   C } # D for Dihedral angle
| 18> { D 14  15  16  17   C } # D for Dihedral angle
| 19> { D 15  16  17  12   C } # D for Dihedral angle
| 20> { D 16  17  12  14   C } # D for Dihedral angle
| 21> { D 17  12  14  15   C } # D for Dihedral angle
| 22> { D 12  14  15  16   C } # D for Dihedral angle
| 23> end
| 24> end
| 25>
| 26>
| 27> #%pal
| 28> #nprocs 8
| 29> #end
| 30>
| 31> * xyz 0 1
| 32> C  -21.048   26.222   46.251
| 33> C  -20.361   27.558   45.944
| 34> C  -20.329   28.222   47.341
| 35> C  -20.110   27.022   48.296
| 36> O  -20.473   25.807   47.535
| 37> H  -20.833   25.428   45.533
| 38> H  -19.344   27.382   45.576
| 39> H  -20.898   28.157   45.201
| 40> H  -19.543   28.978   47.434
| 41> H  -21.289   28.710   47.548
| 42> H  -20.733   27.082   49.195
| 43> H  -19.064   26.913   48.597
| 44> C  -23.353   27.416   48.385
| 45> H  -23.476   27.264   49.469
| 46> C  -22.995   26.105   47.675
| 47> C  -24.375   25.414   47.578
| 48> C  -25.348   26.599   47.357
| 49> O  -24.626   27.820   47.777
| 50> H  -22.646   28.230   48.216
| 51> O  -22.472   26.381   46.366
| 52> H  -22.258   25.508   48.223
| 53> H  -24.425   24.676   46.771
| 54> H  -24.604   24.896   48.518
| 55> H  -26.266   26.505   47.947
| 56> H  -25.615   26.729   46.304
| 57> *
| 58>
| 59>                          ****END OF INPUT****
 Total Charge           Charge          ....    0
 Multiplicity           Mult            ....    1
 Number of Electrons    NEL             ....   86
FINAL SINGLE POINT ENERGY      -538.417702017451
FINAL SINGLE POINT ENERGY      -538.428054044110
FINAL SINGLE POINT ENERGY      -538.429568712145
FINAL SINGLE POINT ENERGY      -538.429862343269
FINAL SINGLE POINT ENERGY      -538.429889854805
FINAL SINGLE POINT ENERGY      -538.429901764238
                    ***********************HURRAY********************

CARTESIAN COORDINATES (ANGSTROEM)
---------------------------------
  C    -21.033610   26.236579   46.354701
  C    -20.389557   27.557451   45.928058
  C    -20.175694   28.260524   47.290630
  C    -19.839316   27.089865   48.241250
  O    -20.311074   25.857228   47.546966
  H    -20.876468   25.422799   45.641605
  H    -19.432379   27.343879   45.439311
  H    -21.026460   28.123277   45.245007
  H    -19.371344   29.002228   47.256362
  H    -21.090371   28.775135   47.595600
  H    -20.337126   27.160063   49.212746
  H    -18.764469   26.964086   48.397798
  C    -23.542702   27.367620   48.520657
  H    -23.783377   27.155729   49.574254
  C    -23.103854   26.085218   47.813628
  C    -24.457678   25.407855   47.532614
  C    -25.402626   26.597031   47.240714
  O    -24.733521   27.800923   47.786736
  H    -22.819387   28.181349   48.472257
  O    -22.478064   26.347938   46.518445
  H    -22.434162   25.471331   48.422417
  H    -24.376019   24.709816   46.696589
  H    -24.783756   24.854452   48.421665
  H    -26.382369   26.485870   47.717691
  H    -25.538619   26.765755   46.169299

 Multiplicity           Mult            ....    1
 Number of Electrons    NEL             ....   86
 Basis Dimension        Dim             ....  127

ORBITAL ENERGIES
----------------

  NO   OCC          E(Eh)            E(eV)
   0   2.0000     -19.152848      -521.1755
   1   2.0000     -19.134610      -520.6792
   2   2.0000     -19.124036      -520.3915
   3   2.0000     -10.279338      -279.7150
   4   2.0000     -10.234899      -278.5057
   5   2.0000     -10.234347      -278.4907
   6   2.0000     -10.219226      -278.0793
   7   2.0000     -10.215238      -277.9708
   8   2.0000     -10.191909      -277.3359
   9   2.0000     -10.186238      -277.1816
  10   2.0000     -10.180099      -277.0146
  11   2.0000      -1.054621       -28.6977
  12   2.0000      -1.010976       -27.5101
  13   2.0000      -0.986311       -26.8389
  14   2.0000      -0.793299       -21.5868
  15   2.0000      -0.778413       -21.1817
  16   2.0000      -0.738860       -20.1054
  17   2.0000      -0.721755       -19.6399
  18   2.0000      -0.615456       -16.7474
  19   2.0000      -0.603901       -16.4330
  20   2.0000      -0.593648       -16.1540
  21   2.0000      -0.563442       -15.3320
  22   2.0000      -0.517525       -14.0826
  23   2.0000      -0.504059       -13.7161
  24   2.0000      -0.489993       -13.3334
  25   2.0000      -0.482738       -13.1360
  26   2.0000      -0.451562       -12.2876
  27   2.0000      -0.436528       -11.8785
  28   2.0000      -0.431252       -11.7350
  29   2.0000      -0.415047       -11.2940
  30   2.0000      -0.411331       -11.1929
  31   2.0000      -0.379296       -10.3212
  32   2.0000      -0.370875       -10.0920
  33   2.0000      -0.362303        -9.8588
  34   2.0000      -0.359259        -9.7759
  35   2.0000      -0.357536        -9.7291
  36   2.0000      -0.345609        -9.4045
  37   2.0000      -0.331757        -9.0276
  38   2.0000      -0.302484        -8.2310
  39   2.0000      -0.299545        -8.1510
  40   2.0000      -0.267404        -7.2764
  41   2.0000      -0.249265        -6.7828
  42   2.0000      -0.228014        -6.2046
  43   0.0000       0.074280         2.0213
  44   0.0000       0.093936         2.5561
  45   0.0000       0.095313         2.5936
  46   0.0000       0.104041         2.8311
  47   0.0000       0.111753         3.0410

MULLIKEN ATOMIC CHARGES
-----------------------
   0 C :    0.306442
   1 C :   -0.259220
   2 C :   -0.318099
   3 C :   -0.018056
   4 O :   -0.514034
   5 H :    0.154697
   6 H :    0.145467
   7 H :    0.165290
   8 H :    0.148366
   9 H :    0.165167
  10 H :    0.142644
  11 H :    0.153423
  12 C :   -0.007905
  13 H :    0.122214
  14 C :    0.056692
  15 C :   -0.288420
  16 C :    0.003997
  17 O :   -0.521692
  18 H :    0.152718
  19 O :   -0.536035
  20 H :    0.161802
  21 H :    0.161552
  22 H :    0.138032
  23 H :    0.131864
  24 H :    0.153094
Sum of atomic charges:    0.0000000

LOEWDIN ATOMIC CHARGES
----------------------
   0 C :    0.183933
   1 C :   -0.220041
   2 C :   -0.221332
   3 C :   -0.033015
   4 O :   -0.319876
   5 H :    0.102804
   6 H :    0.114883
   7 H :    0.128496
   8 H :    0.117917
   9 H :    0.115450
  10 H :    0.101573
  11 H :    0.108464
  12 C :   -0.048838
  13 H :    0.090655
  14 C :    0.036017
  15 C :   -0.225601
  16 C :   -0.028005
  17 O :   -0.332328
  18 H :    0.109989
  19 O :   -0.337608
  20 H :    0.113735
  21 H :    0.127491
  22 H :    0.110486
  23 H :    0.096648
  24 H :    0.108104

  Mayer bond orders larger than 0.100000
B(  0-C ,  1-C ) :   0.9284 B(  0-C ,  4-O ) :   0.9046 B(  0-C ,  5-H ) :   0.9309
B(  0-C , 19-O ) :   0.8565 B(  1-C ,  2-C ) :   0.9536 B(  1-C ,  6-H ) :   0.9352
B(  1-C ,  7-H ) :   0.9347 B(  2-C ,  3-C ) :   0.9536 B(  2-C ,  8-H ) :   0.9438
B(  2-C ,  9-H ) :   0.9318 B(  3-C ,  4-O ) :   0.8299 B(  3-C , 10-H ) :   0.9336
B(  3-C , 11-H ) :   0.9397 B( 12-C , 13-H ) :   0.9094 B( 12-C , 14-C ) :   0.9181
B( 12-C , 17-O ) :   0.8740 B( 12-C , 18-H ) :   0.9234 B( 14-C , 15-C ) :   0.9525
B( 14-C , 19-O ) :   0.8236 B( 14-C , 20-H ) :   0.9088 B( 15-C , 16-C ) :   0.9479
B( 15-C , 21-H ) :   0.9380 B( 15-C , 22-H ) :   0.9423 B( 16-C , 17-O ) :   0.8544
B( 16-C , 23-H ) :   0.9338 B( 16-C , 24-H ) :   0.9365

FINAL SINGLE POINT ENERGY      -538.429902331356

DIPOLE MOMENT
-------------
                                X             Y             Z
Electronic contribution:     -0.70373      -1.46783      -1.02286
Nuclear contribution   :      1.37656       1.35544       1.30239
                        -----------------------------------------
Total Dipole Moment    :      0.67283      -0.11239       0.27953
                        -----------------------------------------
Magnitude (a.u.)       :      0.73720
Magnitude (Debye)      :      1.87382

Rotational constants in cm-1:     0.075099     0.023049     0.021978
Rotational constants in MHz :  2251.419069   690.978966   658.874272

                             ****ORCA TERMINATED NORMALLY****
TOTAL RUN TIME: 0 days 0 hours 15 minutes 46 seconds 272 msec
