                         Program Version 4.2.0 -  RELEASE  -
|  1> # Test redundant internal optimization
|  2> #
|  3> ! RKS B3LYP  Opt TightSCF SmallPrint
|  4>
|  5> %basis
|  6>         Basis "6-31G"
|  7> end
|  8>
|  9> %geom
| 10> Constraints
| 11> { D 4  0  15  12  330.0   C } # D for Dihedral angle
| 12> { D 0  15  12  16  165.0   C } # D for Dihedral angle
| 13> { D 0  4  3  2   C } # D for Dihedral angle
| 14> { D 4  3  2  1   C } # D for Dihedral angle
| 15> { D 3  2  1  0   C } # D for Dihedral angle
| 16> { D 2  1  0  4   C } # D for Dihedral angle
| 17> { D 1  0  4  3   C } # D for Dihedral angle
| 18> { D 16  20  19  18   C } # D for Dihedral angle
| 19> { D 20  19  18  17   C } # D for Dihedral angle
| 20> { D 19  18  17  16   C } # D for Dihedral angle
| 21> { D 18  17  16  20   C } # D for Dihedral angle
| 22> { D 17  16  20  19   C } # D for Dihedral angle
| 23> { D 15  12  16  20   C } # D for Dihedral angle
| 24> end
| 25> end
| 26>
| 27>
| 28> #%pal
| 29> #nprocs 8
| 30> #end
| 31>
| 32> * xyz 0 1
| 33> C  -21.048   26.222   46.251
| 34> C  -20.361   27.558   45.944
| 35> C  -20.329   28.222   47.341
| 36> C  -20.110   27.022   48.296
| 37> O  -20.473   25.807   47.535
| 38> H  -20.833   25.428   45.533
| 39> H  -19.344   27.382   45.576
| 40> H  -20.898   28.157   45.201
| 41> H  -19.543   28.978   47.434
| 42> H  -21.289   28.710   47.548
| 43> H  -20.733   27.082   49.195
| 44> H  -19.064   26.913   48.597
| 45> C  -23.271   25.476   47.424
| 46> H  -23.319   24.452   47.032
| 47> H  -22.691   25.459   48.356
| 48> O  -22.586   26.394   46.375
| 49> C  -24.714   25.934   47.773
| 50> C  -25.641   25.826   46.557
| 51> C  -25.961   24.312   46.541
| 52> C  -26.008   23.946   48.046
| 53> O  -25.312   25.034   48.765
| 54> H  -24.674   26.927   48.224
| 55> H  -26.552   26.411   46.726
| 56> O  -24.981   26.317   45.240
| 57> H  -26.899   24.082   46.025
| 58> H  -25.157   23.763   46.034
| 59> H  -25.509   22.996   48.262
| 60> H  -27.030   23.905   48.433
| 61> H  -24.066   25.744   45.051
| 62> *
| 63>
| 64>                          ****END OF INPUT****
 Total Charge           Charge          ....    0
 Multiplicity           Mult            ....    1
 Number of Electrons    NEL             ....  102
FINAL SINGLE POINT ENERGY      -652.833947090561
FINAL SINGLE POINT ENERGY      -652.858295581546
FINAL SINGLE POINT ENERGY      -652.864837528790
FINAL SINGLE POINT ENERGY      -652.867210354926
FINAL SINGLE POINT ENERGY      -652.868550334201
FINAL SINGLE POINT ENERGY      -652.869297104943
FINAL SINGLE POINT ENERGY      -652.869534342845
FINAL SINGLE POINT ENERGY      -652.869585828207
FINAL SINGLE POINT ENERGY      -652.869590989358
                    ***********************HURRAY********************

CARTESIAN COORDINATES (ANGSTROEM)
---------------------------------
  C    -21.074880   26.123480   46.312262
  C    -20.545370   27.510044   45.953065
  C    -20.493321   28.195179   47.336096
  C    -20.100721   27.047378   48.288687
  O    -20.399239   25.788546   47.538570
  H    -20.842483   25.321359   45.605968
  H    -19.544123   27.408107   45.519690
  H    -21.189137   28.030323   45.240242
  H    -19.777049   29.021670   47.367128
  H    -21.482039   28.588979   47.589079
  H    -20.669228   27.040675   49.221839
  H    -19.031574   27.020849   48.514719
  C    -23.162914   25.361486   47.483017
  H    -23.183512   24.319124   47.138313
  H    -22.596915   25.400888   48.415430
  O    -22.526222   26.208638   46.464618
  C    -24.579473   25.903153   47.698584
  C    -25.506346   25.822624   46.473252
  C    -25.936331   24.325809   46.500992
  C    -26.019626   24.014245   48.009189
  O    -25.245384   25.082651   48.707863
  H    -24.519337   26.918380   48.100326
  H    -26.383257   26.453285   46.659025
  O    -24.937747   26.238438   45.217027
  H    -26.884346   24.166967   45.980411
  H    -25.170951   23.726672   45.995631
  H    -25.594084   23.042083   48.276688
  H    -27.041802   24.069023   48.395067
  H    -23.958589   26.308944   45.312224

 Multiplicity           Mult            ....    1
 Number of Electrons    NEL             ....  102
 Basis Dimension        Dim             ....  149

ORBITAL ENERGIES
----------------

  NO   OCC          E(Eh)            E(eV)
   0   2.0000     -19.162405      -521.4355
   1   2.0000     -19.159430      -521.3546
   2   2.0000     -19.137827      -520.7667
   3   2.0000     -19.111037      -520.0378
   4   2.0000     -10.292884      -280.0836
   5   2.0000     -10.238664      -278.6082
   6   2.0000     -10.232470      -278.4397
   7   2.0000     -10.231776      -278.4208
   8   2.0000     -10.227704      -278.3100
   9   2.0000     -10.224123      -278.2125
  10   2.0000     -10.196344      -277.4566
  11   2.0000     -10.196196      -277.4526
  12   2.0000     -10.176641      -276.9205
  13   2.0000      -1.068537       -29.0764
  14   2.0000      -1.023929       -27.8625
  15   2.0000      -1.006666       -27.3928
  16   2.0000      -0.990113       -26.9423
  17   2.0000      -0.800518       -21.7832
  18   2.0000      -0.772982       -21.0339
  19   2.0000      -0.765888       -20.8409
  20   2.0000      -0.736685       -20.0462
  21   2.0000      -0.676042       -18.3960
  22   2.0000      -0.611366       -16.6361
  23   2.0000      -0.598330       -16.2814
  24   2.0000      -0.592203       -16.1147
  25   2.0000      -0.576812       -15.6958
  26   2.0000      -0.533542       -14.5184
  27   2.0000      -0.514966       -14.0129
  28   2.0000      -0.506327       -13.7779
  29   2.0000      -0.485565       -13.2129
  30   2.0000      -0.477023       -12.9805
  31   2.0000      -0.458536       -12.4774
  32   2.0000      -0.441038       -12.0013
  33   2.0000      -0.426936       -11.6175
  34   2.0000      -0.425541       -11.5796
  35   2.0000      -0.420402       -11.4397
  36   2.0000      -0.409865       -11.1530
  37   2.0000      -0.385515       -10.4904
  38   2.0000      -0.382547       -10.4096
  39   2.0000      -0.369862       -10.0644
  40   2.0000      -0.364781        -9.9262
  41   2.0000      -0.362094        -9.8531
  42   2.0000      -0.355845        -9.6830
  43   2.0000      -0.341605        -9.2956
  44   2.0000      -0.328186        -8.9304
  45   2.0000      -0.314407        -8.5554
  46   2.0000      -0.287384        -7.8201
  47   2.0000      -0.276022        -7.5110
  48   2.0000      -0.269577        -7.3356
  49   2.0000      -0.248380        -6.7588
  50   2.0000      -0.239760        -6.5242
  51   0.0000       0.061323         1.6687
  52   0.0000       0.076073         2.0701
  53   0.0000       0.092460         2.5160
  54   0.0000       0.097308         2.6479
  55   0.0000       0.102165         2.7800

MULLIKEN ATOMIC CHARGES
-----------------------
   0 C :    0.309193
   1 C :   -0.264393
   2 C :   -0.300423
   3 C :   -0.018379
   4 O :   -0.509278
   5 H :    0.157491
   6 H :    0.151334
   7 H :    0.164019
   8 H :    0.149650
   9 H :    0.161159
  10 H :    0.153079
  11 H :    0.154576
  12 C :   -0.009205
  13 H :    0.138002
  14 H :    0.177700
  15 O :   -0.576021
  16 C :    0.049101
  17 C :    0.120122
  18 C :   -0.302013
  19 C :   -0.016511
  20 O :   -0.522240
  21 H :    0.153962
  22 H :    0.146327
  23 O :   -0.640832
  24 H :    0.149725
  25 H :    0.145996
  26 H :    0.140153
  27 H :    0.147283
  28 H :    0.390425
Sum of atomic charges:   -0.0000000

LOEWDIN ATOMIC CHARGES
----------------------
   0 C :    0.181964
   1 C :   -0.215599
   2 C :   -0.216406
   3 C :   -0.029911
   4 O :   -0.316176
   5 H :    0.103475
   6 H :    0.117521
   7 H :    0.127165
   8 H :    0.118578
   9 H :    0.118476
  10 H :    0.107594
  11 H :    0.109236
  12 C :   -0.043599
  13 H :    0.098059
  14 H :    0.120278
  15 O :   -0.350074
  16 C :    0.017711
  17 C :    0.041099
  18 C :   -0.237013
  19 C :   -0.031342
  20 O :   -0.324358
  21 H :    0.112555
  22 H :    0.104574
  23 O :   -0.436618
  24 H :    0.120523
  25 H :    0.111196
  26 H :    0.101303
  27 H :    0.105042
  28 H :    0.284746

  Mayer bond orders larger than 0.100000
B(  0-C ,  1-C ) :   0.9472 B(  0-C ,  4-O ) :   0.9224 B(  0-C ,  5-H ) :   0.9240
B(  0-C , 15-O ) :   0.7950 B(  1-C ,  2-C ) :   0.9525 B(  1-C ,  6-H ) :   0.9363
B(  1-C ,  7-H ) :   0.9348 B(  2-C ,  3-C ) :   0.9547 B(  2-C ,  8-H ) :   0.9439
B(  2-C ,  9-H ) :   0.9443 B(  3-C ,  4-O ) :   0.8234 B(  3-C , 10-H ) :   0.9336
B(  3-C , 11-H ) :   0.9399 B( 12-C , 13-H ) :   0.9242 B( 12-C , 14-H ) :   0.9156
B( 12-C , 15-O ) :   0.7736 B( 12-C , 16-C ) :   0.9059 B( 16-C , 17-C ) :   0.9116
B( 16-C , 20-O ) :   0.8565 B( 16-C , 21-H ) :   0.9296 B( 17-C , 18-C ) :   0.9021
B( 17-C , 22-H ) :   0.9295 B( 17-C , 23-O ) :   0.9351 B( 18-C , 19-C ) :   0.9371
B( 18-C , 24-H ) :   0.9454 B( 18-C , 25-H ) :   0.9431 B( 19-C , 20-O ) :   0.8318
B( 19-C , 26-H ) :   0.9349 B( 19-C , 27-H ) :   0.9391 B( 23-O , 28-H ) :   0.7243

FINAL SINGLE POINT ENERGY      -652.869592545024

DIPOLE MOMENT
-------------
                                X             Y             Z
Electronic contribution:     -0.96171      -1.02018      -0.06754
Nuclear contribution   :      1.91939       1.28940       0.21835
                        -----------------------------------------
Total Dipole Moment    :      0.95769       0.26922       0.15080
                        -----------------------------------------
Magnitude (a.u.)       :      1.00617
Magnitude (Debye)      :      2.55749

Rotational constants in cm-1:     0.055641     0.013975     0.012566
Rotational constants in MHz :  1668.072390   418.956272   376.705726

                             ****ORCA TERMINATED NORMALLY****
TOTAL RUN TIME: 0 days 0 hours 34 minutes 14 seconds 91 msec
