                         Program Version 4.2.0 -  RELEASE  -
|  1> # Test redundant internal optimization
|  2> #
|  3> ! RKS B3LYP  Opt TightSCF SmallPrint
|  4>
|  5> %basis
|  6>         Basis "6-31G"
|  7> end
|  8>
|  9> %geom
| 10> Constraints
| 11> { D 4  0  15  12  210.0   C } # D for Dihedral angle
| 12> { D 0  15  12  16  240.0   C } # D for Dihedral angle
| 13> { D 0  4  3  2   C } # D for Dihedral angle
| 14> { D 4  3  2  1   C } # D for Dihedral angle
| 15> { D 3  2  1  0   C } # D for Dihedral angle
| 16> { D 2  1  0  4   C } # D for Dihedral angle
| 17> { D 1  0  4  3   C } # D for Dihedral angle
| 18> { D 16  20  19  18   C } # D for Dihedral angle
| 19> { D 20  19  18  17   C } # D for Dihedral angle
| 20> { D 19  18  17  16   C } # D for Dihedral angle
| 21> { D 18  17  16  20   C } # D for Dihedral angle
| 22> { D 17  16  20  19   C } # D for Dihedral angle
| 23> { D 15  12  16  20   C } # D for Dihedral angle
| 24> end
| 25> end
| 26>
| 27>
| 28> #%pal
| 29> #nprocs 8
| 30> #end
| 31>
| 32> * xyz 0 1
| 33> C  -21.048   26.222   46.251
| 34> C  -20.361   27.558   45.944
| 35> C  -20.329   28.222   47.341
| 36> C  -20.110   27.022   48.296
| 37> O  -20.473   25.807   47.535
| 38> H  -20.833   25.428   45.533
| 39> H  -19.344   27.382   45.576
| 40> H  -20.898   28.157   45.201
| 41> H  -19.543   28.978   47.434
| 42> H  -21.289   28.710   47.548
| 43> H  -20.733   27.082   49.195
| 44> H  -19.064   26.913   48.597
| 45> C  -23.389   26.110   45.076
| 46> H  -22.695   25.820   44.277
| 47> H  -24.095   25.285   45.234
| 48> O  -22.586   26.394   46.375
| 49> C  -24.203   27.342   44.592
| 50> C  -25.134   27.862   45.693
| 51> C  -24.153   28.666   46.580
| 52> C  -23.159   29.263   45.553
| 53> O  -23.308   28.470   44.313
| 54> H  -24.705   27.094   43.656
| 55> O  -26.211   28.799   45.081
| 56> H  -25.643   27.062   46.241
| 57> H  -24.652   29.437   47.175
| 58> H  -23.634   27.992   47.273
| 59> H  -22.119   29.206   45.893
| 60> H  -23.393   30.301   45.301
| 61> H  -25.724   29.609   44.528
| 62> *
| 63>
| 64>                          ****END OF INPUT****
 Total Charge           Charge          ....    0
 Multiplicity           Mult            ....    1
 Number of Electrons    NEL             ....  102
FINAL SINGLE POINT ENERGY      -652.828951780995
FINAL SINGLE POINT ENERGY      -652.851446952750
FINAL SINGLE POINT ENERGY      -652.857319659930
FINAL SINGLE POINT ENERGY      -652.860738140219
FINAL SINGLE POINT ENERGY      -652.861116372441
FINAL SINGLE POINT ENERGY      -652.861171780793
FINAL SINGLE POINT ENERGY      -652.861175887176
                    ***********************HURRAY********************

CARTESIAN COORDINATES (ANGSTROEM)
---------------------------------
  C    -21.032923   26.185852   46.207978
  C    -20.294403   27.494577   45.938602
  C    -20.224838   28.121531   47.351696
  C    -20.052682   26.888664   48.265158
  O    -20.480607   25.724003   47.447535
  H    -20.860375   25.401233   45.464068
  H    -19.287176   27.264791   45.570887
  H    -20.804351   28.114425   45.197947
  H    -19.402102   28.835430   47.455177
  H    -21.159245   28.639903   47.584877
  H    -20.669232   26.927034   49.166317
  H    -19.010722   26.708156   48.545009
  C    -23.276440   26.167392   45.169996
  H    -22.624747   25.869147   44.337981
  H    -23.972074   25.340838   45.368012
  O    -22.474980   26.371143   46.370485
  C    -24.089613   27.380631   44.717984
  C    -25.157935   27.902151   45.689582
  C    -24.334291   28.877414   46.569992
  C    -23.314994   29.476961   45.572225
  O    -23.282663   28.561547   44.402247
  H    -24.576566   27.084522   43.779445
  O    -26.227734   28.575106   44.967961
  H    -25.649705   27.115582   46.262093
  H    -24.977982   29.631297   47.030384
  H    -23.820861   28.306831   47.347543
  H    -22.310681   29.561738   45.988256
  H    -23.621621   30.458417   45.194715
  H    -25.836460   29.206681   44.327848

 Multiplicity           Mult            ....    1
 Number of Electrons    NEL             ....  102
 Basis Dimension        Dim             ....  149

ORBITAL ENERGIES
----------------

  NO   OCC          E(Eh)            E(eV)
   0   2.0000     -19.148092      -521.0461
   1   2.0000     -19.145209      -520.9676
   2   2.0000     -19.142375      -520.8905
   3   2.0000     -19.137631      -520.7614
   4   2.0000     -10.281469      -279.7730
   5   2.0000     -10.239697      -278.6363
   6   2.0000     -10.237510      -278.5768
   7   2.0000     -10.236712      -278.5551
   8   2.0000     -10.230539      -278.3871
   9   2.0000     -10.227095      -278.2934
  10   2.0000     -10.189247      -277.2635
  11   2.0000     -10.184138      -277.1245
  12   2.0000     -10.182257      -277.0733
  13   2.0000      -1.054596       -28.6970
  14   2.0000      -1.037622       -28.2351
  15   2.0000      -1.007351       -27.4114
  16   2.0000      -0.996033       -27.1034
  17   2.0000      -0.789022       -21.4704
  18   2.0000      -0.780728       -21.2447
  19   2.0000      -0.769511       -20.9394
  20   2.0000      -0.734109       -19.9761
  21   2.0000      -0.679117       -18.4797
  22   2.0000      -0.603697       -16.4274
  23   2.0000      -0.602606       -16.3977
  24   2.0000      -0.597541       -16.2599
  25   2.0000      -0.581329       -15.8188
  26   2.0000      -0.526611       -14.3298
  27   2.0000      -0.507628       -13.8133
  28   2.0000      -0.496467       -13.5096
  29   2.0000      -0.490674       -13.3519
  30   2.0000      -0.478408       -13.0182
  31   2.0000      -0.462609       -12.5882
  32   2.0000      -0.450245       -12.2518
  33   2.0000      -0.444831       -12.1045
  34   2.0000      -0.423708       -11.5297
  35   2.0000      -0.411622       -11.2008
  36   2.0000      -0.402599       -10.9553
  37   2.0000      -0.391876       -10.6635
  38   2.0000      -0.377781       -10.2800
  39   2.0000      -0.372532       -10.1371
  40   2.0000      -0.361332        -9.8323
  41   2.0000      -0.358251        -9.7485
  42   2.0000      -0.354103        -9.6356
  43   2.0000      -0.331998        -9.0341
  44   2.0000      -0.315866        -8.5951
  45   2.0000      -0.313528        -8.5315
  46   2.0000      -0.304727        -8.2920
  47   2.0000      -0.275199        -7.4885
  48   2.0000      -0.264505        -7.1975
  49   2.0000      -0.260160        -7.0793
  50   2.0000      -0.241741        -6.5781
  51   0.0000       0.062194         1.6924
  52   0.0000       0.079290         2.1576
  53   0.0000       0.089218         2.4277
  54   0.0000       0.097910         2.6643
  55   0.0000       0.098918         2.6917

MULLIKEN ATOMIC CHARGES
-----------------------
   0 C :    0.297708
   1 C :   -0.278400
   2 C :   -0.309649
   3 C :   -0.002535
   4 O :   -0.503187
   5 H :    0.141377
   6 H :    0.143428
   7 H :    0.173650
   8 H :    0.144109
   9 H :    0.156766
  10 H :    0.152179
  11 H :    0.143401
  12 C :   -0.016289
  13 H :    0.139251
  14 H :    0.146430
  15 O :   -0.516102
  16 C :    0.076285
  17 C :    0.080609
  18 C :   -0.292613
  19 C :   -0.028004
  20 O :   -0.530879
  21 H :    0.154466
  22 O :   -0.603321
  23 H :    0.157363
  24 H :    0.152104
  25 H :    0.176393
  26 H :    0.143991
  27 H :    0.139294
  28 H :    0.362175
Sum of atomic charges:   -0.0000000

LOEWDIN ATOMIC CHARGES
----------------------
   0 C :    0.181958
   1 C :   -0.232448
   2 C :   -0.218896
   3 C :   -0.025364
   4 O :   -0.305023
   5 H :    0.097067
   6 H :    0.114548
   7 H :    0.128019
   8 H :    0.115444
   9 H :    0.111762
  10 H :    0.108051
  11 H :    0.103099
  12 C :   -0.038121
  13 H :    0.103218
  14 H :    0.108905
  15 O :   -0.340189
  16 C :    0.007820
  17 C :    0.039191
  18 C :   -0.240291
  19 C :   -0.035623
  20 O :   -0.333505
  21 H :    0.115954
  22 O :   -0.416382
  23 H :    0.118899
  24 H :    0.121138
  25 H :    0.129371
  26 H :    0.102100
  27 H :    0.097820
  28 H :    0.281478

  Mayer bond orders larger than 0.100000
B(  0-C ,  1-C ) :   0.9306 B(  0-C ,  4-O ) :   0.9388 B(  0-C ,  5-H ) :   0.9189
B(  0-C , 15-O ) :   0.8263 B(  1-C ,  2-C ) :   0.9546 B(  1-C ,  6-H ) :   0.9325
B(  1-C ,  7-H ) :   0.9177 B(  2-C ,  3-C ) :   0.9505 B(  2-C ,  8-H ) :   0.9451
B(  2-C ,  9-H ) :   0.9352 B(  3-C ,  4-O ) :   0.8369 B(  3-C , 10-H ) :   0.9349
B(  3-C , 11-H ) :   0.9392 B( 12-C , 13-H ) :   0.9181 B( 12-C , 14-H ) :   0.9197
B( 12-C , 15-O ) :   0.8660 B( 12-C , 16-C ) :   0.8931 B( 16-C , 17-C ) :   0.9101
B( 16-C , 20-O ) :   0.8629 B( 16-C , 21-H ) :   0.9168 B( 17-C , 18-C ) :   0.9236
B( 17-C , 22-O ) :   0.8905 B( 17-C , 23-H ) :   0.9347 B( 18-C , 19-C ) :   0.9474
B( 18-C , 24-H ) :   0.9368 B( 18-C , 25-H ) :   0.9182 B( 19-C , 20-O ) :   0.8370
B( 19-C , 26-H ) :   0.9214 B( 19-C , 27-H ) :   0.9380 B( 22-O , 28-H ) :   0.7971

FINAL SINGLE POINT ENERGY      -652.861174883816

DIPOLE MOMENT
-------------
                                X             Y             Z
Electronic contribution:     -2.94842      -3.19030      -1.93182
Nuclear contribution   :      3.64240       3.84514       1.84855
                        -----------------------------------------
Total Dipole Moment    :      0.69398       0.65484      -0.08327
                        -----------------------------------------
Magnitude (a.u.)       :      0.95779
Magnitude (Debye)      :      2.43450

Rotational constants in cm-1:     0.054950     0.015496     0.014461
Rotational constants in MHz :  1647.346942   464.572653   433.519459

                             ****ORCA TERMINATED NORMALLY****
TOTAL RUN TIME: 0 days 0 hours 35 minutes 59 seconds 190 msec
