                         Program Version 4.2.0 -  RELEASE  -
|  1> # Test redundant internal optimization
|  2> #
|  3> ! RKS B3LYP  Opt TightSCF SmallPrint
|  4>
|  5> %basis
|  6>         Basis "6-31G"
|  7> end
|  8>
|  9> %geom
| 10> Constraints
| 11> { D 4  0  15  12  120.0   C } # D for Dihedral angle
| 12> { D 0  15  12  16  180.0   C } # D for Dihedral angle
| 13> { D 0  4  3  2   C } # D for Dihedral angle
| 14> { D 4  3  2  1   C } # D for Dihedral angle
| 15> { D 3  2  1  0   C } # D for Dihedral angle
| 16> { D 2  1  0  4   C } # D for Dihedral angle
| 17> { D 1  0  4  3   C } # D for Dihedral angle
| 18> { D 16  20  19  18   C } # D for Dihedral angle
| 19> { D 20  19  18  17   C } # D for Dihedral angle
| 20> { D 19  18  17  16   C } # D for Dihedral angle
| 21> { D 18  17  16  20   C } # D for Dihedral angle
| 22> { D 17  16  20  19   C } # D for Dihedral angle
| 23> { D 15  12  16  20   C } # D for Dihedral angle
| 24> end
| 25> end
| 26>
| 27>
| 28> #%pal
| 29> #nprocs 8
| 30> #end
| 31>
| 32> * xyz 0 1
| 33> C  -21.048   26.222   46.251
| 34> C  -20.361   27.558   45.944
| 35> C  -20.329   28.222   47.341
| 36> C  -20.110   27.022   48.296
| 37> O  -20.473   25.807   47.535
| 38> H  -20.833   25.428   45.533
| 39> H  -19.344   27.382   45.576
| 40> H  -20.898   28.157   45.201
| 41> H  -19.543   28.978   47.434
| 42> H  -21.289   28.710   47.548
| 43> H  -20.733   27.082   49.195
| 44> H  -19.064   26.913   48.597
| 45> C  -23.119   27.818   46.058
| 46> H  -22.658   28.538   46.745
| 47> H  -22.856   28.107   45.032
| 48> O  -22.586   26.394   46.375
| 49> C  -24.663   27.927   46.199
| 50> C  -25.106   27.705   47.650
| 51> C  -24.796   29.080   48.286
| 52> C  -25.106   30.076   47.140
| 53> O  -25.111   29.289   45.889
| 54> H  -25.136   27.262   45.475
| 55> O  -26.629   27.407   47.701
| 56> H  -24.577   26.880   48.140
| 57> H  -25.392   29.277   49.183
| 58> H  -23.738   29.134   48.569
| 59> H  -24.357   30.871   47.062
| 60> H  -26.095   30.531   47.239
| 61> H  -27.181   28.221   47.215
| 62> *
| 63>
| 64>                          ****END OF INPUT****
 Total Charge           Charge          ....    0
 Multiplicity           Mult            ....    1
 Number of Electrons    NEL             ....  102
FINAL SINGLE POINT ENERGY      -652.821999761707
FINAL SINGLE POINT ENERGY      -652.846952319259
FINAL SINGLE POINT ENERGY      -652.853798625614
FINAL SINGLE POINT ENERGY      -652.856019211363
FINAL SINGLE POINT ENERGY      -652.856321946838
FINAL SINGLE POINT ENERGY      -652.856377067011
FINAL SINGLE POINT ENERGY      -652.856382751097
                    ***********************HURRAY********************

CARTESIAN COORDINATES (ANGSTROEM)
---------------------------------
  C    -21.225577   26.341193   46.318859
  C    -20.226826   27.432732   45.918637
  C    -20.001460   28.177137   47.265123
  C    -20.081489   27.028241   48.299135
  O    -20.757440   25.903710   47.609984
  H    -21.193723   25.452979   45.685316
  H    -19.302032   26.947989   45.589471
  H    -20.574754   28.085218   45.113576
  H    -19.036085   28.691552   47.295499
  H    -20.780654   28.925101   47.438484
  H    -20.652354   27.293534   49.193484
  H    -19.094335   26.666022   48.599587
  C    -23.116524   28.038949   46.046667
  H    -22.683293   28.807121   46.699112
  H    -22.895742   28.308639   45.006693
  O    -22.629747   26.709374   46.371400
  C    -24.632900   27.989469   46.230971
  C    -25.106573   27.700242   47.663238
  C    -24.958003   29.091571   48.328582
  C    -25.321570   30.072450   47.186014
  O    -25.201443   29.306180   45.919079
  H    -25.062531   27.272266   45.527022
  O    -26.491415   27.253548   47.665033
  H    -24.535056   26.910989   48.147488
  H    -25.621654   29.178444   49.192208
  H    -23.928523   29.242475   48.672489
  H    -24.657635   30.941217   47.139892
  H    -26.354653   30.427410   47.249309
  H    -27.007009   27.802248   47.036646

 Multiplicity           Mult            ....    1
 Number of Electrons    NEL             ....  102
 Basis Dimension        Dim             ....  149

ORBITAL ENERGIES
----------------

  NO   OCC          E(Eh)            E(eV)
   0   2.0000     -19.145610      -520.9785
   1   2.0000     -19.145528      -520.9763
   2   2.0000     -19.142096      -520.8829
   3   2.0000     -19.132629      -520.6253
   4   2.0000     -10.283183      -279.8196
   5   2.0000     -10.235847      -278.5316
   6   2.0000     -10.233317      -278.4627
   7   2.0000     -10.232844      -278.4498
   8   2.0000     -10.232473      -278.4398
   9   2.0000     -10.231146      -278.4036
  10   2.0000     -10.198524      -277.5159
  11   2.0000     -10.198410      -277.5128
  12   2.0000     -10.187591      -277.2185
  13   2.0000      -1.053951       -28.6795
  14   2.0000      -1.035572       -28.1793
  15   2.0000      -1.002867       -27.2894
  16   2.0000      -0.998237       -27.1634
  17   2.0000      -0.794497       -21.6194
  18   2.0000      -0.781713       -21.2715
  19   2.0000      -0.771025       -20.9806
  20   2.0000      -0.734385       -19.9836
  21   2.0000      -0.680953       -18.5297
  22   2.0000      -0.609436       -16.5836
  23   2.0000      -0.603517       -16.4225
  24   2.0000      -0.596850       -16.2411
  25   2.0000      -0.576761       -15.6945
  26   2.0000      -0.523965       -14.2578
  27   2.0000      -0.515762       -14.0346
  28   2.0000      -0.506213       -13.7748
  29   2.0000      -0.494077       -13.4445
  30   2.0000      -0.474649       -12.9159
  31   2.0000      -0.456063       -12.4101
  32   2.0000      -0.453032       -12.3276
  33   2.0000      -0.441062       -12.0019
  34   2.0000      -0.431331       -11.7371
  35   2.0000      -0.414683       -11.2841
  36   2.0000      -0.410160       -11.1610
  37   2.0000      -0.391743       -10.6599
  38   2.0000      -0.387257       -10.5378
  39   2.0000      -0.369302       -10.0492
  40   2.0000      -0.364871        -9.9287
  41   2.0000      -0.362130        -9.8541
  42   2.0000      -0.353407        -9.6167
  43   2.0000      -0.332475        -9.0471
  44   2.0000      -0.317908        -8.6507
  45   2.0000      -0.305838        -8.3223
  46   2.0000      -0.296363        -8.0645
  47   2.0000      -0.272517        -7.4156
  48   2.0000      -0.267110        -7.2684
  49   2.0000      -0.255465        -6.9516
  50   2.0000      -0.247058        -6.7228
  51   0.0000       0.056036         1.5248
  52   0.0000       0.065371         1.7788
  53   0.0000       0.088888         2.4188
  54   0.0000       0.096342         2.6216
  55   0.0000       0.100763         2.7419

MULLIKEN ATOMIC CHARGES
-----------------------
   0 C :    0.318162
   1 C :   -0.297913
   2 C :   -0.311635
   3 C :   -0.004378
   4 O :   -0.494510
   5 H :    0.162059
   6 H :    0.158931
   7 H :    0.149538
   8 H :    0.147847
   9 H :    0.149813
  10 H :    0.146622
  11 H :    0.147701
  12 C :    0.001377
  13 H :    0.125710
  14 H :    0.142481
  15 O :   -0.535405
  16 C :    0.052690
  17 C :    0.086993
  18 C :   -0.296723
  19 C :   -0.032161
  20 O :   -0.528422
  21 H :    0.171573
  22 O :   -0.600771
  23 H :    0.186306
  24 H :    0.164053
  25 H :    0.136996
  26 H :    0.144214
  27 H :    0.147280
  28 H :    0.361574
Sum of atomic charges:    0.0000000

LOEWDIN ATOMIC CHARGES
----------------------
   0 C :    0.181521
   1 C :   -0.231111
   2 C :   -0.220977
   3 C :   -0.030662
   4 O :   -0.312225
   5 H :    0.108596
   6 H :    0.124476
   7 H :    0.117381
   8 H :    0.117325
   9 H :    0.108174
  10 H :    0.104619
  11 H :    0.105283
  12 C :   -0.037234
  13 H :    0.088467
  14 H :    0.101145
  15 O :   -0.333462
  16 C :    0.019234
  17 C :    0.038654
  18 C :   -0.241443
  19 C :   -0.039507
  20 O :   -0.332004
  21 H :    0.120908
  22 O :   -0.413378
  23 H :    0.132368
  24 H :    0.127604
  25 H :    0.109746
  26 H :    0.102600
  27 H :    0.103264
  28 H :    0.280637

  Mayer bond orders larger than 0.100000
B(  0-C ,  1-C ) :   0.9329 B(  0-C ,  4-O ) :   0.9184 B(  0-C ,  5-H ) :   0.9313
B(  0-C , 15-O ) :   0.8624 B(  1-C ,  2-C ) :   0.9501 B(  1-C ,  6-H ) :   0.9339
B(  1-C ,  7-H ) :   0.9299 B(  2-C ,  3-C ) :   0.9484 B(  2-C ,  8-H ) :   0.9452
B(  2-C ,  9-H ) :   0.9395 B(  3-C ,  4-O ) :   0.8460 B(  3-C , 10-H ) :   0.9346
B(  3-C , 11-H ) :   0.9390 B( 12-C , 13-H ) :   0.9046 B( 12-C , 14-H ) :   0.9155
B( 12-C , 15-O ) :   0.8305 B( 12-C , 16-C ) :   0.9014 B( 16-C , 17-C ) :   0.9139
B( 16-C , 20-O ) :   0.8427 B( 16-C , 21-H ) :   0.9239 B( 17-C , 18-C ) :   0.9104
B( 17-C , 22-O ) :   0.8907 B( 17-C , 23-H ) :   0.9203 B( 18-C , 19-C ) :   0.9416
B( 18-C , 24-H ) :   0.9377 B( 18-C , 25-H ) :   0.9362 B( 19-C , 20-O ) :   0.8436
B( 19-C , 26-H ) :   0.9357 B( 19-C , 27-H ) :   0.9380 B( 22-O , 28-H ) :   0.7960

FINAL SINGLE POINT ENERGY      -652.856383843001

DIPOLE MOMENT
-------------
                                X             Y             Z
Electronic contribution:     -4.46556      -4.77828      -1.74301
Nuclear contribution   :      5.62156       6.23507       1.66298
                        -----------------------------------------
Total Dipole Moment    :      1.15600       1.45679      -0.08004
                        -----------------------------------------
Magnitude (a.u.)       :      1.86145
Magnitude (Debye)      :      4.73142

Rotational constants in cm-1:     0.050550     0.013600     0.013217
Rotational constants in MHz :  1515.437805   407.716419   396.236406

                             ****ORCA TERMINATED NORMALLY****
TOTAL RUN TIME: 0 days 1 hours 3 minutes 53 seconds 967 msec
