                         Program Version 4.2.0 -  RELEASE  -
|  1> # Test redundant internal optimization
|  2> #
|  3> ! RKS B3LYP  Opt TightSCF SmallPrint
|  4>
|  5> %basis
|  6>         Basis "6-31G"
|  7> end
|  8>
|  9> %geom
| 10> Constraints
| 11> { D 4  0  15  12  30.0   C } # D for Dihedral angle
| 12> { D 0  15  12  16  240.0   C } # D for Dihedral angle
| 13> { D 0  4  3  2   C } # D for Dihedral angle
| 14> { D 4  3  2  1   C } # D for Dihedral angle
| 15> { D 3  2  1  0   C } # D for Dihedral angle
| 16> { D 2  1  0  4   C } # D for Dihedral angle
| 17> { D 1  0  4  3   C } # D for Dihedral angle
| 18> { D 16  20  19  18   C } # D for Dihedral angle
| 19> { D 20  19  18  17   C } # D for Dihedral angle
| 20> { D 19  18  17  16   C } # D for Dihedral angle
| 21> { D 18  17  16  20   C } # D for Dihedral angle
| 22> { D 17  16  20  19   C } # D for Dihedral angle
| 23> { D 15  12  16  20   C } # D for Dihedral angle
| 24> end
| 25> end
| 26>
| 27>
| 28> #%pal
| 29> #nprocs 8
| 30> #end
| 31>
| 32> * xyz 0 1
| 33> C  -21.048   26.222   46.251
| 34> C  -20.361   27.558   45.944
| 35> C  -20.329   28.222   47.341
| 36> C  -20.110   27.022   48.296
| 37> O  -20.473   25.807   47.535
| 38> H  -20.833   25.428   45.533
| 39> H  -19.344   27.382   45.576
| 40> H  -20.898   28.157   45.201
| 41> H  -19.543   28.978   47.434
| 42> H  -21.289   28.710   47.548
| 43> H  -20.733   27.082   49.195
| 44> H  -19.064   26.913   48.597
| 45> C  -23.091   26.824   47.779
| 46> H  -22.233   26.941   48.453
| 47> H  -23.615   27.787   47.721
| 48> O  -22.586   26.394   46.375
| 49> C  -24.069   25.792   48.408
| 50> C  -24.636   26.301   49.738
| 51> C  -25.734   27.279   49.256
| 52> C  -26.274   26.598   47.975
| 53> O  -25.249   25.619   47.555
| 54> H  -23.573   24.821   48.470
| 55> H  -25.077   25.472   50.302
| 56> O  -23.568   26.988   50.633
| 57> H  -26.516   27.441   50.005
| 58> H  -25.292   28.254   49.018
| 59> H  -26.444   27.311   47.160
| 60> H  -27.198   26.040   48.156
| 61> H  -23.113   27.823   50.090
| 62> *
| 63>
| 64>                          ****END OF INPUT****
 Total Charge           Charge          ....    0
 Multiplicity           Mult            ....    1
 Number of Electrons    NEL             ....  102
FINAL SINGLE POINT ENERGY      -652.816032878012
FINAL SINGLE POINT ENERGY      -652.840837412044
FINAL SINGLE POINT ENERGY      -652.848185805057
FINAL SINGLE POINT ENERGY      -652.850560417223
FINAL SINGLE POINT ENERGY      -652.850931940557
FINAL SINGLE POINT ENERGY      -652.851052015254
FINAL SINGLE POINT ENERGY      -652.851068436435
FINAL SINGLE POINT ENERGY      -652.851061079051
FINAL SINGLE POINT ENERGY      -652.851058203557
                    ***********************HURRAY********************

CARTESIAN COORDINATES (ANGSTROEM)
---------------------------------
  C    -21.139897   26.282057   46.392399
  C    -20.376183   27.518906   45.905511
  C    -20.038192   28.234947   47.241666
  C    -19.791822   27.052675   48.210579
  O    -20.413813   25.863899   47.569970
  H    -21.103280   25.446438   45.691705
  H    -19.461515   27.197086   45.395004
  H    -20.971616   28.128129   45.222129
  H    -19.164186   28.888279   47.161763
  H    -20.885051   28.848387   47.568965
  H    -20.232368   27.196439   49.202023
  H    -18.728311   26.823541   48.327161
  C    -23.090818   26.937182   47.861431
  H    -22.300205   27.049704   48.607482
  H    -23.580677   27.906732   47.699998
  O    -22.560945   26.498628   46.581830
  C    -24.078083   25.894876   48.388826
  C    -24.731919   26.286261   49.725153
  C    -25.902016   27.201932   49.253085
  C    -26.333396   26.541427   47.924399
  O    -25.210408   25.673202   47.495395
  H    -23.550192   24.939004   48.448789
  H    -25.119118   25.391444   50.217082
  O    -23.842510   26.888382   50.700664
  H    -26.711677   27.255755   49.986300
  H    -25.524541   28.220705   49.089701
  H    -26.544868   27.270314   47.135456
  H    -27.208231   25.896192   48.049992
  H    -23.697162   27.833479   50.490542

 Multiplicity           Mult            ....    1
 Number of Electrons    NEL             ....  102
 Basis Dimension        Dim             ....  149

ORBITAL ENERGIES
----------------

  NO   OCC          E(Eh)            E(eV)
   0   2.0000     -19.149733      -521.0907
   1   2.0000     -19.147572      -521.0319
   2   2.0000     -19.134687      -520.6813
   3   2.0000     -19.132190      -520.6134
   4   2.0000     -10.276097      -279.6268
   5   2.0000     -10.243120      -278.7295
   6   2.0000     -10.232880      -278.4508
   7   2.0000     -10.227778      -278.3120
   8   2.0000     -10.227727      -278.3106
   9   2.0000     -10.224235      -278.2156
  10   2.0000     -10.195529      -277.4344
  11   2.0000     -10.194215      -277.3987
  12   2.0000     -10.185704      -277.1671
  13   2.0000      -1.052133       -28.6300
  14   2.0000      -1.031911       -28.0797
  15   2.0000      -1.012868       -27.5615
  16   2.0000      -0.990865       -26.9628
  17   2.0000      -0.789477       -21.4828
  18   2.0000      -0.780916       -21.2498
  19   2.0000      -0.768465       -20.9110
  20   2.0000      -0.732651       -19.9364
  21   2.0000      -0.679058       -18.4781
  22   2.0000      -0.610257       -16.6059
  23   2.0000      -0.604458       -16.4481
  24   2.0000      -0.597444       -16.2573
  25   2.0000      -0.566482       -15.4148
  26   2.0000      -0.523263       -14.2387
  27   2.0000      -0.513251       -13.9663
  28   2.0000      -0.501357       -13.6426
  29   2.0000      -0.494167       -13.4470
  30   2.0000      -0.468044       -12.7361
  31   2.0000      -0.460827       -12.5397
  32   2.0000      -0.440642       -11.9905
  33   2.0000      -0.431419       -11.7395
  34   2.0000      -0.422189       -11.4884
  35   2.0000      -0.418323       -11.3831
  36   2.0000      -0.414664       -11.2836
  37   2.0000      -0.397763       -10.8237
  38   2.0000      -0.377950       -10.2845
  39   2.0000      -0.373325       -10.1587
  40   2.0000      -0.361029        -9.8241
  41   2.0000      -0.353068        -9.6075
  42   2.0000      -0.348651        -9.4873
  43   2.0000      -0.327823        -8.9205
  44   2.0000      -0.324132        -8.8201
  45   2.0000      -0.314615        -8.5611
  46   2.0000      -0.303170        -8.2497
  47   2.0000      -0.269741        -7.3400
  48   2.0000      -0.262916        -7.1543
  49   2.0000      -0.254057        -6.9132
  50   2.0000      -0.229894        -6.2557
  51   0.0000       0.047504         1.2926
  52   0.0000       0.073959         2.0125
  53   0.0000       0.085312         2.3215
  54   0.0000       0.092394         2.5142
  55   0.0000       0.103631         2.8199

MULLIKEN ATOMIC CHARGES
-----------------------
   0 C :    0.292973
   1 C :   -0.259118
   2 C :   -0.310297
   3 C :   -0.023639
   4 O :   -0.507889
   5 H :    0.166680
   6 H :    0.147339
   7 H :    0.156303
   8 H :    0.148066
   9 H :    0.144321
  10 H :    0.148150
  11 H :    0.152064
  12 C :   -0.024206
  13 H :    0.146681
  14 H :    0.122542
  15 O :   -0.515520
  16 C :    0.101842
  17 C :    0.082945
  18 C :   -0.332545
  19 C :   -0.007699
  20 O :   -0.503204
  21 H :    0.169881
  22 H :    0.168276
  23 O :   -0.599960
  24 H :    0.159460
  25 H :    0.130311
  26 H :    0.144402
  27 H :    0.148992
  28 H :    0.352850
Sum of atomic charges:   -0.0000000

LOEWDIN ATOMIC CHARGES
----------------------
   0 C :    0.179380
   1 C :   -0.226103
   2 C :   -0.222885
   3 C :   -0.037045
   4 O :   -0.318916
   5 H :    0.112729
   6 H :    0.116073
   7 H :    0.123031
   8 H :    0.117543
   9 H :    0.108257
  10 H :    0.101527
  11 H :    0.107085
  12 C :   -0.052297
  13 H :    0.108622
  14 H :    0.092643
  15 O :   -0.318482
  16 C :    0.018004
  17 C :    0.033570
  18 C :   -0.243405
  19 C :   -0.029949
  20 O :   -0.312044
  21 H :    0.123024
  22 H :    0.119942
  23 O :   -0.409176
  24 H :    0.122546
  25 H :    0.102078
  26 H :    0.103055
  27 H :    0.105568
  28 H :    0.275625

  Mayer bond orders larger than 0.100000
B(  0-C ,  1-C ) :   0.9155 B(  0-C ,  4-O ) :   0.9036 B(  0-C ,  5-H ) :   0.9332
B(  0-C , 15-O ) :   0.8817 B(  1-C ,  2-C ) :   0.9547 B(  1-C ,  6-H ) :   0.9348
B(  1-C ,  7-H ) :   0.9374 B(  2-C ,  3-C ) :   0.9496 B(  2-C ,  8-H ) :   0.9450
B(  2-C ,  9-H ) :   0.9452 B(  3-C ,  4-O ) :   0.8364 B(  3-C , 10-H ) :   0.9274
B(  3-C , 11-H ) :   0.9391 B( 12-C , 13-H ) :   0.8924 B( 12-C , 14-H ) :   0.9307
B( 12-C , 15-O ) :   0.8470 B( 12-C , 16-C ) :   0.8976 B( 16-C , 17-C ) :   0.8695
B( 16-C , 20-O ) :   0.8687 B( 16-C , 21-H ) :   0.9288 B( 17-C , 18-C ) :   0.9261
B( 17-C , 22-H ) :   0.9322 B( 17-C , 23-O ) :   0.8901 B( 18-C , 19-C ) :   0.9411
B( 18-C , 24-H ) :   0.9411 B( 18-C , 25-H ) :   0.9402 B( 19-C , 20-O ) :   0.8549
B( 19-C , 26-H ) :   0.9307 B( 19-C , 27-H ) :   0.9375 B( 23-O , 28-H ) :   0.8004

FINAL SINGLE POINT ENERGY      -652.851059379168

DIPOLE MOMENT
-------------
                                X             Y             Z
Electronic contribution:     -1.19607      -5.19444      -0.59284
Nuclear contribution   :      1.33405       6.86907       0.86662
                        -----------------------------------------
Total Dipole Moment    :      0.13798       1.67463       0.27378
                        -----------------------------------------
Magnitude (a.u.)       :      1.70246
Magnitude (Debye)      :      4.32731

Rotational constants in cm-1:     0.050659     0.014436     0.012780
Rotational constants in MHz :  1518.730590   432.769949   383.138872

                             ****ORCA TERMINATED NORMALLY****
TOTAL RUN TIME: 0 days 1 hours 4 minutes 6 seconds 66 msec
