                         Program Version 4.2.0 -  RELEASE  -
|  1> # Test redundant internal optimization
|  2> #
|  3> ! RKS B3LYP  Opt TightSCF SmallPrint
|  4>
|  5> %basis
|  6>         Basis "6-31G"
|  7> end
|  8>
|  9> %geom
| 10> Constraints
| 11> { D 4  0  15  12  240.0   C } # D for Dihedral angle
| 12> { D 0  15  12  16  345.0   C } # D for Dihedral angle
| 13> { D 0  4  3  2   C } # D for Dihedral angle
| 14> { D 4  3  2  1   C } # D for Dihedral angle
| 15> { D 3  2  1  0   C } # D for Dihedral angle
| 16> { D 2  1  0  4   C } # D for Dihedral angle
| 17> { D 1  0  4  3   C } # D for Dihedral angle
| 18> { D 16  20  19  18   C } # D for Dihedral angle
| 19> { D 20  19  18  17   C } # D for Dihedral angle
| 20> { D 19  18  17  16   C } # D for Dihedral angle
| 21> { D 18  17  16  20   C } # D for Dihedral angle
| 22> { D 17  16  20  19   C } # D for Dihedral angle
| 23> { D 15  12  16  20   C } # D for Dihedral angle
| 24> end
| 25> end
| 26>
| 27>
| 28> #%pal
| 29> #nprocs 8
| 30> #end
| 31>
| 32> * xyz 0 1
| 33> C  -21.048   26.222   46.251
| 34> C  -20.361   27.558   45.944
| 35> C  -20.329   28.222   47.341
| 36> C  -20.110   27.022   48.296
| 37> O  -20.473   25.807   47.535
| 38> H  -20.833   25.428   45.533
| 39> H  -19.344   27.382   45.576
| 40> H  -20.898   28.157   45.201
| 41> H  -19.543   28.978   47.434
| 42> H  -21.289   28.710   47.548
| 43> H  -20.733   27.082   49.195
| 44> H  -19.064   26.913   48.597
| 45> C  -23.430   25.483   45.442
| 46> H  -23.880   24.677   46.035
| 47> H  -24.239   26.057   44.973
| 48> O  -22.586   26.394   46.375
| 49> C  -22.586   24.841   44.306
| 50> C  -23.469   24.044   43.340
| 51> C  -24.073   25.169   42.466
| 52> C  -22.918   26.196   42.368
| 53> O  -21.981   25.881   43.467
| 54> H  -21.768   24.269   44.747
| 55> O  -22.594   23.092   42.479
| 56> H  -24.233   23.445   43.849
| 57> H  -24.400   24.814   41.483
| 58> H  -24.942   25.611   42.968
| 59> H  -23.265   27.230   42.479
| 60> H  -22.359   26.109   41.432
| 61> H  -21.822   23.670   41.960
| 62> *
| 63>
| 64>                          ****END OF INPUT****
 Total Charge           Charge          ....    0
 Multiplicity           Mult            ....    1
 Number of Electrons    NEL             ....  102
FINAL SINGLE POINT ENERGY      -652.826142082346
FINAL SINGLE POINT ENERGY      -652.849150648321
FINAL SINGLE POINT ENERGY      -652.853907233667
FINAL SINGLE POINT ENERGY      -652.856276427520
FINAL SINGLE POINT ENERGY      -652.856532210701
FINAL SINGLE POINT ENERGY      -652.856573740354
                    ***********************HURRAY********************

CARTESIAN COORDINATES (ANGSTROEM)
---------------------------------
  C    -20.873697   26.224127   46.211232
  C    -20.314937   27.633752   46.017290
  C    -20.460856   28.232896   47.436456
  C    -20.188006   27.019003   48.352923
  O    -20.364583   25.818520   47.500265
  H    -20.530020   25.491839   45.484741
  H    -19.259287   27.569515   45.727180
  H    -20.860271   28.182710   45.248181
  H    -19.767504   29.058902   47.620807
  H    -21.482649   28.597873   47.576724
  H    -20.878853   26.955276   49.197876
  H    -19.159016   26.991331   48.725147
  C    -23.190975   25.513117   45.406735
  H    -23.663818   24.738695   46.028258
  H    -23.971687   26.203617   45.069887
  O    -22.320464   26.310717   46.258689
  C    -22.545077   24.824547   44.204404
  C    -23.557753   24.065431   43.332845
  C    -24.146612   25.209477   42.462684
  C    -22.928491   26.143024   42.243842
  O    -21.933143   25.790272   43.284617
  H    -21.751439   24.143075   44.523045
  O    -22.893356   23.058044   42.524324
  H    -24.312975   23.522252   43.901963
  H    -24.553431   24.814220   41.529333
  H    -24.951583   25.721863   43.000244
  H    -23.183769   27.202428   42.340781
  H    -22.448202   25.987078   41.272767
  H    -22.077546   23.439400   42.136762

 Multiplicity           Mult            ....    1
 Number of Electrons    NEL             ....  102
 Basis Dimension        Dim             ....  149

ORBITAL ENERGIES
----------------

  NO   OCC          E(Eh)            E(eV)
   0   2.0000     -19.152866      -521.1760
   1   2.0000     -19.146257      -520.9961
   2   2.0000     -19.132920      -520.6332
   3   2.0000     -19.128147      -520.5033
   4   2.0000     -10.269274      -279.4411
   5   2.0000     -10.251346      -278.9533
   6   2.0000     -10.243637      -278.7435
   7   2.0000     -10.239812      -278.6394
   8   2.0000     -10.235066      -278.5103
   9   2.0000     -10.215512      -277.9782
  10   2.0000     -10.197179      -277.4793
  11   2.0000     -10.175544      -276.8906
  12   2.0000     -10.172467      -276.8069
  13   2.0000      -1.048464       -28.5301
  14   2.0000      -1.038661       -28.2634
  15   2.0000      -1.014604       -27.6088
  16   2.0000      -0.983837       -26.7716
  17   2.0000      -0.793089       -21.5810
  18   2.0000      -0.777496       -21.1567
  19   2.0000      -0.769040       -20.9266
  20   2.0000      -0.729553       -19.8521
  21   2.0000      -0.675473       -18.3806
  22   2.0000      -0.612960       -16.6795
  23   2.0000      -0.610128       -16.6024
  24   2.0000      -0.588001       -16.0003
  25   2.0000      -0.565952       -15.4003
  26   2.0000      -0.534675       -14.5492
  27   2.0000      -0.512833       -13.9549
  28   2.0000      -0.492631       -13.4052
  29   2.0000      -0.485333       -13.2066
  30   2.0000      -0.475163       -12.9299
  31   2.0000      -0.456919       -12.4334
  32   2.0000      -0.451306       -12.2807
  33   2.0000      -0.437344       -11.9007
  34   2.0000      -0.429094       -11.6762
  35   2.0000      -0.410314       -11.1652
  36   2.0000      -0.402238       -10.9455
  37   2.0000      -0.393731       -10.7140
  38   2.0000      -0.380782       -10.3616
  39   2.0000      -0.369852       -10.0642
  40   2.0000      -0.360970        -9.8225
  41   2.0000      -0.347908        -9.4671
  42   2.0000      -0.343566        -9.3489
  43   2.0000      -0.336884        -9.1671
  44   2.0000      -0.319267        -8.6877
  45   2.0000      -0.306782        -8.3480
  46   2.0000      -0.300404        -8.1744
  47   2.0000      -0.279910        -7.6167
  48   2.0000      -0.259127        -7.0512
  49   2.0000      -0.250226        -6.8090
  50   2.0000      -0.235835        -6.4174
  51   0.0000       0.058314         1.5868
  52   0.0000       0.082089         2.2338
  53   0.0000       0.087421         2.3789
  54   0.0000       0.092295         2.5115
  55   0.0000       0.099674         2.7123

MULLIKEN ATOMIC CHARGES
-----------------------
   0 C :    0.286631
   1 C :   -0.243376
   2 C :   -0.300025
   3 C :    0.000305
   4 O :   -0.508353
   5 H :    0.157023
   6 H :    0.137932
   7 H :    0.151640
   8 H :    0.135331
   9 H :    0.159174
  10 H :    0.147057
  11 H :    0.136953
  12 C :    0.042260
  13 H :    0.138061
  14 H :    0.140918
  15 O :   -0.536203
  16 C :    0.010914
  17 C :    0.082808
  18 C :   -0.298941
  19 C :   -0.027338
  20 O :   -0.526817
  21 H :    0.174837
  22 O :   -0.600404
  23 H :    0.158347
  24 H :    0.165652
  25 H :    0.148210
  26 H :    0.153028
  27 H :    0.148296
  28 H :    0.366079
Sum of atomic charges:   -0.0000000

LOEWDIN ATOMIC CHARGES
----------------------
   0 C :    0.178997
   1 C :   -0.216151
   2 C :   -0.217983
   3 C :   -0.026875
   4 O :   -0.321323
   5 H :    0.105003
   6 H :    0.110345
   7 H :    0.121236
   8 H :    0.110867
   9 H :    0.117655
  10 H :    0.105037
  11 H :    0.099578
  12 C :   -0.031107
  13 H :    0.102926
  14 H :    0.105244
  15 O :   -0.332574
  16 C :   -0.003652
  17 C :    0.040428
  18 C :   -0.240259
  19 C :   -0.036259
  20 O :   -0.334903
  21 H :    0.118295
  22 O :   -0.412048
  23 H :    0.118822
  24 H :    0.128387
  25 H :    0.114827
  26 H :    0.107561
  27 H :    0.103768
  28 H :    0.284161

  Mayer bond orders larger than 0.100000
B(  0-C ,  1-C ) :   0.9438 B(  0-C ,  4-O ) :   0.9150 B(  0-C ,  5-H ) :   0.9081
B(  0-C , 15-O ) :   0.8377 B(  1-C ,  2-C ) :   0.9558 B(  1-C ,  6-H ) :   0.9389
B(  1-C ,  7-H ) :   0.9381 B(  2-C ,  3-C ) :   0.9540 B(  2-C ,  8-H ) :   0.9460
B(  2-C ,  9-H ) :   0.9442 B(  3-C ,  4-O ) :   0.8415 B(  3-C , 10-H ) :   0.9354
B(  3-C , 11-H ) :   0.9403 B( 12-C , 13-H ) :   0.9119 B( 12-C , 14-H ) :   0.9292
B( 12-C , 15-O ) :   0.8542 B( 12-C , 16-C ) :   0.9001 B( 16-C , 17-C ) :   0.8957
B( 16-C , 20-O ) :   0.8368 B( 16-C , 21-H ) :   0.9150 B( 17-C , 18-C ) :   0.9108
B( 17-C , 22-O ) :   0.8957 B( 17-C , 23-H ) :   0.9323 B( 18-C , 19-C ) :   0.9407
B( 18-C , 24-H ) :   0.9371 B( 18-C , 25-H ) :   0.9332 B( 19-C , 20-O ) :   0.8421
B( 19-C , 26-H ) :   0.9344 B( 19-C , 27-H ) :   0.9378 B( 22-O , 28-H ) :   0.7937

FINAL SINGLE POINT ENERGY      -652.856577335722

DIPOLE MOMENT
-------------
                                X             Y             Z
Electronic contribution:      0.69950      -4.41060      -0.09830
Nuclear contribution   :     -1.15058       5.24136      -0.62413
                        -----------------------------------------
Total Dipole Moment    :     -0.45108       0.83076      -0.72243
                        -----------------------------------------
Magnitude (a.u.)       :      1.18976
Magnitude (Debye)      :      3.02414

Rotational constants in cm-1:     0.065537     0.012486     0.011836
Rotational constants in MHz :  1964.736577   374.321241   354.842680

                             ****ORCA TERMINATED NORMALLY****
TOTAL RUN TIME: 0 days 0 hours 27 minutes 26 seconds 646 msec
