                         Program Version 4.2.0 -  RELEASE  -
|  1> # Test redundant internal optimization
|  2> #
|  3> ! RKS B3LYP  Opt TightSCF SmallPrint
|  4>
|  5> %basis
|  6>         Basis "6-31G"
|  7> end
|  8>
|  9> %geom
| 10> Constraints
| 11> { D 4  0  15  12  345.0   C } # D for Dihedral angle
| 12> { D 0  15  12  16  180.0   C } # D for Dihedral angle
| 13> { D 0  4  3  2   C } # D for Dihedral angle
| 14> { D 4  3  2  1   C } # D for Dihedral angle
| 15> { D 3  2  1  0   C } # D for Dihedral angle
| 16> { D 2  1  0  4   C } # D for Dihedral angle
| 17> { D 1  0  4  3   C } # D for Dihedral angle
| 18> { D 16  20  19  18   C } # D for Dihedral angle
| 19> { D 20  19  18  17   C } # D for Dihedral angle
| 20> { D 19  18  17  16   C } # D for Dihedral angle
| 21> { D 18  17  16  20   C } # D for Dihedral angle
| 22> { D 17  16  20  19   C } # D for Dihedral angle
| 23> { D 15  12  16  20   C } # D for Dihedral angle
| 24> end
| 25> end
| 26>
| 27>
| 28> #%pal
| 29> #nprocs 8
| 30> #end
| 31>
| 32> * xyz 0 1
| 33> C  -21.048   26.222   46.251
| 34> C  -20.361   27.558   45.944
| 35> C  -20.329   28.222   47.341
| 36> C  -20.110   27.022   48.296
| 37> O  -20.473   25.807   47.535
| 38> H  -20.833   25.428   45.533
| 39> H  -19.344   27.382   45.576
| 40> H  -20.898   28.157   45.201
| 41> H  -19.543   28.978   47.434
| 42> H  -21.289   28.710   47.548
| 43> H  -20.733   27.082   49.195
| 44> H  -19.064   26.913   48.597
| 45> C  -23.221   25.764   47.645
| 46> H  -23.015   24.687   47.656
| 47> H  -22.785   26.205   48.551
| 48> O  -22.586   26.394   46.375
| 49> C  -24.760   25.969   47.712
| 50> C  -25.469   25.235   46.568
| 51> C  -25.485   23.779   47.092
| 52> C  -25.671   23.957   48.620
| 53> O  -25.305   25.356   48.928
| 54> H  -24.976   27.037   47.768
| 55> H  -26.490   25.616   46.454
| 56> O  -24.738   25.378   45.205
| 57> H  -26.279   23.176   46.642
| 58> H  -24.528   23.291   46.873
| 59> H  -25.033   23.283   49.201
| 60> H  -26.709   23.819   48.933
| 61> H  -23.713   25.003   45.297
| 62> *
| 63>
| 64>                          ****END OF INPUT****
 Total Charge           Charge          ....    0
 Multiplicity           Mult            ....    1
 Number of Electrons    NEL             ....  102
FINAL SINGLE POINT ENERGY      -652.830929574171
FINAL SINGLE POINT ENERGY      -652.855044195014
FINAL SINGLE POINT ENERGY      -652.861664816704
FINAL SINGLE POINT ENERGY      -652.864229534217
FINAL SINGLE POINT ENERGY      -652.865722012794
FINAL SINGLE POINT ENERGY      -652.866622308363
FINAL SINGLE POINT ENERGY      -652.866967597483
FINAL SINGLE POINT ENERGY      -652.867053674190
FINAL SINGLE POINT ENERGY      -652.867065209501
                    ***********************HURRAY********************

CARTESIAN COORDINATES (ANGSTROEM)
---------------------------------
  C    -21.074690   26.141355   46.351543
  C    -20.516290   27.507088   45.957637
  C    -20.416836   28.214084   47.327351
  C    -20.034647   27.071598   48.291242
  O    -20.382516   25.809501   47.568764
  H    -20.876386   25.326922   45.650641
  H    -19.526981   27.372080   45.505863
  H    -21.162284   28.030920   45.249669
  H    -19.678267   29.021337   47.329659
  H    -21.388323   28.641198   47.594561
  H    -20.582629   27.093817   49.236536
  H    -18.961925   27.020896   48.495412
  C    -23.127094   25.684551   47.742463
  H    -22.897522   24.615896   47.821860
  H    -22.731323   26.184573   48.629700
  O    -22.528942   26.241419   46.519176
  C    -24.637777   25.925088   47.652948
  C    -25.354095   25.204988   46.497067
  C    -25.482750   23.757775   47.058051
  C    -25.709823   23.986629   48.566375
  O    -25.261557   25.381422   48.857456
  H    -24.833907   27.000968   47.648686
  H    -26.354824   25.638627   46.386912
  O    -24.708251   25.272452   45.211506
  H    -26.301415   23.210932   46.582909
  H    -24.553143   23.214530   46.856906
  H    -25.143156   23.298248   49.200471
  H    -26.765878   23.936349   48.846118
  H    -23.794770   25.624757   45.333515

 Multiplicity           Mult            ....    1
 Number of Electrons    NEL             ....  102
 Basis Dimension        Dim             ....  149

ORBITAL ENERGIES
----------------

  NO   OCC          E(Eh)            E(eV)
   0   2.0000     -19.161716      -521.4168
   1   2.0000     -19.161134      -521.4010
   2   2.0000     -19.138128      -520.7749
   3   2.0000     -19.110378      -520.0198
   4   2.0000     -10.293013      -280.0871
   5   2.0000     -10.240273      -278.6520
   6   2.0000     -10.234466      -278.4940
   7   2.0000     -10.231966      -278.4259
   8   2.0000     -10.227653      -278.3086
   9   2.0000     -10.223978      -278.2086
  10   2.0000     -10.198027      -277.5024
  11   2.0000     -10.196135      -277.4509
  12   2.0000     -10.176400      -276.9139
  13   2.0000      -1.068531       -29.0762
  14   2.0000      -1.024061       -27.8661
  15   2.0000      -1.006472       -27.3875
  16   2.0000      -0.989669       -26.9303
  17   2.0000      -0.800868       -21.7927
  18   2.0000      -0.773973       -21.0609
  19   2.0000      -0.765969       -20.8431
  20   2.0000      -0.737298       -20.0629
  21   2.0000      -0.676178       -18.3997
  22   2.0000      -0.612528       -16.6677
  23   2.0000      -0.599010       -16.2999
  24   2.0000      -0.592462       -16.1217
  25   2.0000      -0.575848       -15.6696
  26   2.0000      -0.533535       -14.5182
  27   2.0000      -0.514895       -14.0110
  28   2.0000      -0.506963       -13.7952
  29   2.0000      -0.486309       -13.2331
  30   2.0000      -0.476781       -12.9739
  31   2.0000      -0.457233       -12.4419
  32   2.0000      -0.440868       -11.9966
  33   2.0000      -0.430747       -11.7212
  34   2.0000      -0.425529       -11.5792
  35   2.0000      -0.421050       -11.4574
  36   2.0000      -0.408047       -11.1035
  37   2.0000      -0.386341       -10.5129
  38   2.0000      -0.382544       -10.4096
  39   2.0000      -0.370544       -10.0830
  40   2.0000      -0.364667        -9.9231
  41   2.0000      -0.363217        -9.8836
  42   2.0000      -0.356634        -9.7045
  43   2.0000      -0.339952        -9.2506
  44   2.0000      -0.331150        -9.0111
  45   2.0000      -0.317112        -8.6291
  46   2.0000      -0.288859        -7.8603
  47   2.0000      -0.276035        -7.5113
  48   2.0000      -0.265545        -7.2258
  49   2.0000      -0.247932        -6.7466
  50   2.0000      -0.239955        -6.5295
  51   0.0000       0.059376         1.6157
  52   0.0000       0.073688         2.0051
  53   0.0000       0.093295         2.5387
  54   0.0000       0.098016         2.6672
  55   0.0000       0.101030         2.7492

MULLIKEN ATOMIC CHARGES
-----------------------
   0 C :    0.306473
   1 C :   -0.259124
   2 C :   -0.304865
   3 C :   -0.021148
   4 O :   -0.508435
   5 H :    0.160894
   6 H :    0.150649
   7 H :    0.164457
   8 H :    0.151265
   9 H :    0.160633
  10 H :    0.153406
  11 H :    0.155662
  12 C :    0.000619
  13 H :    0.149372
  14 H :    0.156639
  15 O :   -0.577011
  16 C :    0.045668
  17 C :    0.118644
  18 C :   -0.302434
  19 C :   -0.018766
  20 O :   -0.522410
  21 H :    0.157539
  22 H :    0.143838
  23 O :   -0.640458
  24 H :    0.151427
  25 H :    0.145970
  26 H :    0.143486
  27 H :    0.146814
  28 H :    0.391197
Sum of atomic charges:    0.0000000

LOEWDIN ATOMIC CHARGES
----------------------
   0 C :    0.182643
   1 C :   -0.216820
   2 C :   -0.217696
   3 C :   -0.031156
   4 O :   -0.314406
   5 H :    0.106438
   6 H :    0.117124
   7 H :    0.127541
   8 H :    0.119597
   9 H :    0.117932
  10 H :    0.106633
  11 H :    0.109793
  12 C :   -0.039142
  13 H :    0.104012
  14 H :    0.109907
  15 O :   -0.352776
  16 C :    0.017420
  17 C :    0.041559
  18 C :   -0.237100
  19 C :   -0.032016
  20 O :   -0.324762
  21 H :    0.113962
  22 H :    0.103680
  23 O :   -0.437325
  24 H :    0.120955
  25 H :    0.111519
  26 H :    0.102474
  27 H :    0.105135
  28 H :    0.284875

  Mayer bond orders larger than 0.100000
B(  0-C ,  1-C ) :   0.9423 B(  0-C ,  4-O ) :   0.9261 B(  0-C ,  5-H ) :   0.9264
B(  0-C , 15-O ) :   0.7899 B(  1-C ,  2-C ) :   0.9517 B(  1-C ,  6-H ) :   0.9351
B(  1-C ,  7-H ) :   0.9350 B(  2-C ,  3-C ) :   0.9539 B(  2-C ,  8-H ) :   0.9439
B(  2-C ,  9-H ) :   0.9447 B(  3-C ,  4-O ) :   0.8229 B(  3-C , 10-H ) :   0.9310
B(  3-C , 11-H ) :   0.9396 B( 12-C , 13-H ) :   0.9230 B( 12-C , 14-H ) :   0.9219
B( 12-C , 15-O ) :   0.7743 B( 12-C , 16-C ) :   0.9042 B( 15-O , 28-H ) :   0.1006
B( 16-C , 17-C ) :   0.9138 B( 16-C , 20-O ) :   0.8562 B( 16-C , 21-H ) :   0.9285
B( 17-C , 18-C ) :   0.9023 B( 17-C , 22-H ) :   0.9296 B( 17-C , 23-O ) :   0.9370
B( 18-C , 19-C ) :   0.9398 B( 18-C , 24-H ) :   0.9447 B( 18-C , 25-H ) :   0.9430
B( 19-C , 20-O ) :   0.8323 B( 19-C , 26-H ) :   0.9338 B( 19-C , 27-H ) :   0.9391
B( 23-O , 28-H ) :   0.7216

FINAL SINGLE POINT ENERGY      -652.867067114468

DIPOLE MOMENT
-------------
                                X             Y             Z
Electronic contribution:     -1.54955      -0.97072      -0.85536
Nuclear contribution   :      2.59306       1.46886       1.19705
                        -----------------------------------------
Total Dipole Moment    :      1.04351       0.49813       0.34169
                        -----------------------------------------
Magnitude (a.u.)       :      1.20574
Magnitude (Debye)      :      3.06474

Rotational constants in cm-1:     0.054820     0.014055     0.012660
Rotational constants in MHz :  1643.474605   421.343814   379.528035

                             ****ORCA TERMINATED NORMALLY****
TOTAL RUN TIME: 0 days 0 hours 39 minutes 40 seconds 40 msec
