                         Program Version 4.2.0 -  RELEASE  -
|  1> # Test redundant internal optimization
|  2> #
|  3> ! RKS B3LYP  Opt TightSCF SmallPrint
|  4>
|  5> %basis
|  6>         Basis "6-31G"
|  7> end
|  8>
|  9> %geom
| 10> Constraints
| 11> { D 4  0  15  12  285.0   C } # D for Dihedral angle
| 12> { D 0  15  12  16  315.0   C } # D for Dihedral angle
| 13> { D 0  4  3  2   C } # D for Dihedral angle
| 14> { D 4  3  2  1   C } # D for Dihedral angle
| 15> { D 3  2  1  0   C } # D for Dihedral angle
| 16> { D 2  1  0  4   C } # D for Dihedral angle
| 17> { D 1  0  4  3   C } # D for Dihedral angle
| 18> { D 16  20  19  18   C } # D for Dihedral angle
| 19> { D 20  19  18  17   C } # D for Dihedral angle
| 20> { D 19  18  17  16   C } # D for Dihedral angle
| 21> { D 18  17  16  20   C } # D for Dihedral angle
| 22> { D 17  16  20  19   C } # D for Dihedral angle
| 23> { D 15  12  16  20   C } # D for Dihedral angle
| 24> end
| 25> end
| 26>
| 27>
| 28> #%pal
| 29> #nprocs 8
| 30> #end
| 31>
| 32> * xyz 0 1
| 33> C  -21.048   26.222   46.251
| 34> C  -20.361   27.558   45.944
| 35> C  -20.329   28.222   47.341
| 36> C  -20.110   27.022   48.296
| 37> O  -20.473   25.807   47.535
| 38> H  -20.833   25.428   45.533
| 39> H  -19.344   27.382   45.576
| 40> H  -20.898   28.157   45.201
| 41> H  -19.543   28.978   47.434
| 42> H  -21.289   28.710   47.548
| 43> H  -20.733   27.082   49.195
| 44> H  -19.064   26.913   48.597
| 45> C  -23.396   25.070   46.435
| 46> H  -23.284   24.622   47.431
| 47> H  -24.463   25.264   46.264
| 48> O  -22.586   26.394   46.375
| 49> C  -22.929   24.032   45.378
| 50> C  -23.823   22.787   45.388
| 51> C  -25.054   23.277   44.589
| 52> C  -24.432   24.223   43.532
| 53> O  -23.083   24.575   44.024
| 54> H  -21.866   23.827   45.522
| 55> H  -23.326   21.962   44.865
| 56> O  -24.186   22.309   46.821
| 57> H  -25.619   22.457   44.134
| 58> H  -25.735   23.828   45.248
| 59> H  -25.015   25.141   43.396
| 60> H  -24.305   23.737   42.560
| 61> H  -24.686   23.117   47.364
| 62> *
| 63>
| 64>                          ****END OF INPUT****
 Total Charge           Charge          ....    0
 Multiplicity           Mult            ....    1
 Number of Electrons    NEL             ....  102
FINAL SINGLE POINT ENERGY      -652.828649998445
FINAL SINGLE POINT ENERGY      -652.853066199986
FINAL SINGLE POINT ENERGY      -652.858549701742
FINAL SINGLE POINT ENERGY      -652.859386907972
FINAL SINGLE POINT ENERGY      -652.859534193037
FINAL SINGLE POINT ENERGY      -652.859560941553
FINAL SINGLE POINT ENERGY      -652.859564691555
                    ***********************HURRAY********************

CARTESIAN COORDINATES (ANGSTROEM)
---------------------------------
  C    -20.988786   26.186092   46.211321
  C    -20.427118   27.586612   45.959504
  C    -20.441105   28.193820   47.382126
  C    -20.108634   26.981838   48.281979
  O    -20.374623   25.775912   47.459381
  H    -20.721362   25.437309   45.465606
  H    -19.403782   27.500756   45.576783
  H    -21.032052   28.144937   45.242852
  H    -19.719832   29.008315   47.500817
  H    -21.440268   28.578162   47.605858
  H    -20.723035   26.937886   49.185145
  H    -19.052024   26.940697   48.564036
  C    -23.245342   25.136012   46.396554
  H    -23.172836   24.704170   47.404974
  H    -24.259042   25.517957   46.242261
  O    -22.415547   26.333771   46.333639
  C    -22.914713   24.036681   45.386184
  C    -23.876639   22.837182   45.470876
  C    -25.091938   23.338223   44.629053
  C    -24.412506   24.176650   43.523805
  O    -23.042634   24.491005   44.004260
  H    -21.880268   23.708289   45.509819
  H    -23.413188   21.974847   44.986815
  O    -24.199181   22.371891   46.800849
  H    -25.685384   22.510624   44.232285
  H    -25.747181   23.954390   45.258269
  H    -24.937305   25.113319   43.313184
  H    -24.301513   23.617299   42.590241
  H    -24.785161   23.008356   47.258525

 Multiplicity           Mult            ....    1
 Number of Electrons    NEL             ....  102
 Basis Dimension        Dim             ....  149

ORBITAL ENERGIES
----------------

  NO   OCC          E(Eh)            E(eV)
   0   2.0000     -19.151084      -521.1275
   1   2.0000     -19.140623      -520.8428
   2   2.0000     -19.138685      -520.7901
   3   2.0000     -19.132038      -520.6092
   4   2.0000     -10.269725      -279.4534
   5   2.0000     -10.247764      -278.8558
   6   2.0000     -10.233281      -278.4617
   7   2.0000     -10.232950      -278.4527
   8   2.0000     -10.228751      -278.3385
   9   2.0000     -10.218921      -278.0710
  10   2.0000     -10.197135      -277.4781
  11   2.0000     -10.178382      -276.9678
  12   2.0000     -10.177061      -276.9319
  13   2.0000      -1.047675       -28.5087
  14   2.0000      -1.035126       -28.1672
  15   2.0000      -1.017958       -27.7001
  16   2.0000      -0.986586       -26.8464
  17   2.0000      -0.786097       -21.3908
  18   2.0000      -0.780447       -21.2370
  19   2.0000      -0.764380       -20.7998
  20   2.0000      -0.729899       -19.8616
  21   2.0000      -0.678691       -18.4681
  22   2.0000      -0.613762       -16.7013
  23   2.0000      -0.603847       -16.4315
  24   2.0000      -0.591060       -16.0836
  25   2.0000      -0.559954       -15.2371
  26   2.0000      -0.533820       -14.5260
  27   2.0000      -0.510928       -13.9031
  28   2.0000      -0.495980       -13.4963
  29   2.0000      -0.482220       -13.1219
  30   2.0000      -0.467919       -12.7327
  31   2.0000      -0.453639       -12.3441
  32   2.0000      -0.436933       -11.8896
  33   2.0000      -0.435820       -11.8593
  34   2.0000      -0.429661       -11.6917
  35   2.0000      -0.420745       -11.4490
  36   2.0000      -0.403605       -10.9827
  37   2.0000      -0.396587       -10.7917
  38   2.0000      -0.381162       -10.3719
  39   2.0000      -0.367009        -9.9868
  40   2.0000      -0.356129        -9.6908
  41   2.0000      -0.349197        -9.5021
  42   2.0000      -0.340164        -9.2563
  43   2.0000      -0.333258        -9.0684
  44   2.0000      -0.322213        -8.7679
  45   2.0000      -0.314925        -8.5695
  46   2.0000      -0.293644        -7.9904
  47   2.0000      -0.273921        -7.4538
  48   2.0000      -0.267998        -7.2926
  49   2.0000      -0.244404        -6.6506
  50   2.0000      -0.239068        -6.5054
  51   0.0000       0.051541         1.4025
  52   0.0000       0.078039         2.1235
  53   0.0000       0.087854         2.3906
  54   0.0000       0.094919         2.5829
  55   0.0000       0.102846         2.7986

MULLIKEN ATOMIC CHARGES
-----------------------
   0 C :    0.274884
   1 C :   -0.257469
   2 C :   -0.297706
   3 C :   -0.001038
   4 O :   -0.516075
   5 H :    0.161853
   6 H :    0.142941
   7 H :    0.158821
   8 H :    0.137554
   9 H :    0.160225
  10 H :    0.143308
  11 H :    0.140185
  12 C :    0.008021
  13 H :    0.141455
  14 H :    0.139160
  15 O :   -0.521520
  16 C :    0.055665
  17 C :    0.083337
  18 C :   -0.320361
  19 C :   -0.010835
  20 O :   -0.516699
  21 H :    0.170559
  22 H :    0.168890
  23 O :   -0.595487
  24 H :    0.159065
  25 H :    0.134668
  26 H :    0.148989
  27 H :    0.150555
  28 H :    0.357056
Sum of atomic charges:    0.0000000

LOEWDIN ATOMIC CHARGES
----------------------
   0 C :    0.170001
   1 C :   -0.212888
   2 C :   -0.216570
   3 C :   -0.027632
   4 O :   -0.334399
   5 H :    0.104165
   6 H :    0.112744
   7 H :    0.125274
   8 H :    0.111571
   9 H :    0.118118
  10 H :    0.103264
  11 H :    0.101254
  12 C :   -0.048774
  13 H :    0.103179
  14 H :    0.106731
  15 O :   -0.317289
  16 C :    0.003759
  17 C :    0.038117
  18 C :   -0.241060
  19 C :   -0.028799
  20 O :   -0.323875
  21 H :    0.118384
  22 H :    0.119749
  23 O :   -0.403506
  24 H :    0.123487
  25 H :    0.104714
  26 H :    0.105221
  27 H :    0.106593
  28 H :    0.278469

  Mayer bond orders larger than 0.100000
B(  0-C ,  1-C ) :   0.9494 B(  0-C ,  4-O ) :   0.8963 B(  0-C ,  5-H ) :   0.9089
B(  0-C , 15-O ) :   0.8643 B(  1-C ,  2-C ) :   0.9564 B(  1-C ,  6-H ) :   0.9415
B(  1-C ,  7-H ) :   0.9362 B(  2-C ,  3-C ) :   0.9552 B(  2-C ,  8-H ) :   0.9457
B(  2-C ,  9-H ) :   0.9447 B(  3-C ,  4-O ) :   0.8407 B(  3-C , 10-H ) :   0.9362
B(  3-C , 11-H ) :   0.9406 B( 12-C , 13-H ) :   0.9029 B( 12-C , 14-H ) :   0.9386
B( 12-C , 15-O ) :   0.8548 B( 12-C , 16-C ) :   0.8936 B( 16-C , 17-C ) :   0.8681
B( 16-C , 20-O ) :   0.8560 B( 16-C , 21-H ) :   0.9226 B( 17-C , 18-C ) :   0.9216
B( 17-C , 22-H ) :   0.9336 B( 17-C , 23-O ) :   0.9044 B( 18-C , 19-C ) :   0.9379
B( 18-C , 24-H ) :   0.9419 B( 18-C , 25-H ) :   0.9416 B( 19-C , 20-O ) :   0.8444
B( 19-C , 26-H ) :   0.9316 B( 19-C , 27-H ) :   0.9380 B( 23-O , 28-H ) :   0.7966

FINAL SINGLE POINT ENERGY      -652.859565697691

DIPOLE MOMENT
-------------
                                X             Y             Z
Electronic contribution:      0.36969      -3.21857      -0.09911
Nuclear contribution   :     -1.14978       3.66940      -0.08144
                        -----------------------------------------
Total Dipole Moment    :     -0.78009       0.45083      -0.18055
                        -----------------------------------------
Magnitude (a.u.)       :      0.91891
Magnitude (Debye)      :      2.33568

Rotational constants in cm-1:     0.058330     0.013108     0.011670
Rotational constants in MHz :  1748.685729   392.979220   349.851435

                             ****ORCA TERMINATED NORMALLY****
TOTAL RUN TIME: 0 days 0 hours 18 minutes 35 seconds 948 msec
