                         Program Version 4.2.0 -  RELEASE  -
|  1> # Test redundant internal optimization
|  2> #
|  3> ! RKS B3LYP  Opt TightSCF SmallPrint
|  4>
|  5> %basis
|  6>         Basis "6-31G"
|  7> end
|  8>
|  9> %geom
| 10> Constraints
| 11> { D 4  0  15  12  105.0   C } # D for Dihedral angle
| 12> { D 0  15  12  16  255.0   C } # D for Dihedral angle
| 13> { D 0  4  3  2   C } # D for Dihedral angle
| 14> { D 4  3  2  1   C } # D for Dihedral angle
| 15> { D 3  2  1  0   C } # D for Dihedral angle
| 16> { D 2  1  0  4   C } # D for Dihedral angle
| 17> { D 1  0  4  3   C } # D for Dihedral angle
| 18> { D 16  20  19  18   C } # D for Dihedral angle
| 19> { D 20  19  18  17   C } # D for Dihedral angle
| 20> { D 19  18  17  16   C } # D for Dihedral angle
| 21> { D 18  17  16  20   C } # D for Dihedral angle
| 22> { D 17  16  20  19   C } # D for Dihedral angle
| 23> { D 15  12  16  20   C } # D for Dihedral angle
| 24> end
| 25> end
| 26>
| 27>
| 28> #%pal
| 29> #nprocs 8
| 30> #end
| 31>
| 32> * xyz 0 1
| 33> C  -21.048   26.222   46.251
| 34> C  -20.361   27.558   45.944
| 35> C  -20.329   28.222   47.341
| 36> C  -20.110   27.022   48.296
| 37> O  -20.473   25.807   47.535
| 38> H  -20.833   25.428   45.533
| 39> H  -19.344   27.382   45.576
| 40> H  -20.898   28.157   45.201
| 41> H  -19.543   28.978   47.434
| 42> H  -21.289   28.710   47.548
| 43> H  -20.733   27.082   49.195
| 44> H  -19.064   26.913   48.597
| 45> C  -23.085   27.864   46.420
| 46> H  -22.281   28.530   46.080
| 47> H  -23.946   27.999   45.753
| 48> O  -22.586   26.394   46.375
| 49> C  -23.517   28.309   47.845
| 50> C  -24.110   29.722   47.832
| 51> C  -25.543   29.455   47.313
| 52> C  -25.892   28.080   47.935
| 53> O  -24.610   27.463   48.336
| 54> H  -22.677   28.177   48.531
| 55> H  -24.137   30.129   48.849
| 56> O  -23.317   30.708   46.931
| 57> H  -26.252   30.237   47.604
| 58> H  -25.542   29.395   46.218
| 59> H  -26.403   27.417   47.227
| 60> H  -26.502   28.173   48.837
| 61> H  -23.277   30.322   45.906
| 62> *
| 63>
| 64>                          ****END OF INPUT****
 Total Charge           Charge          ....    0
 Multiplicity           Mult            ....    1
 Number of Electrons    NEL             ....  102
FINAL SINGLE POINT ENERGY      -652.802543786263
FINAL SINGLE POINT ENERGY      -652.828590456115
FINAL SINGLE POINT ENERGY      -652.842747903747
FINAL SINGLE POINT ENERGY      -652.845590784953
FINAL SINGLE POINT ENERGY      -652.846220953890
FINAL SINGLE POINT ENERGY      -652.846359511144
FINAL SINGLE POINT ENERGY      -652.846373070880
FINAL SINGLE POINT ENERGY      -652.846374928823
                    ***********************HURRAY********************

CARTESIAN COORDINATES (ANGSTROEM)
---------------------------------
  C    -21.126431   26.312741   46.347219
  C    -20.172476   27.441927   45.936762
  C    -19.939765   28.179395   47.287697
  C    -19.958503   27.014444   48.309458
  O    -20.612359   25.876540   47.624718
  H    -21.067417   25.432294   45.705645
  H    -19.240804   26.987645   45.585130
  H    -20.556512   28.086752   45.141597
  H    -18.988561   28.720502   47.302592
  H    -20.733094   28.905514   47.488527
  H    -20.517036   27.252284   49.219976
  H    -18.952589   26.685209   48.585418
  C    -23.101186   27.935168   46.386386
  H    -22.378475   28.682331   46.041878
  H    -23.928500   27.902795   45.667012
  O    -22.547959   26.593203   46.382350
  C    -23.622148   28.331975   47.770677
  C    -24.261338   29.729750   47.813076
  C    -25.705796   29.436082   47.307056
  C    -25.992752   28.035366   47.892964
  O    -24.677915   27.447036   48.251125
  H    -22.809103   28.235446   48.496649
  H    -24.284919   30.087345   48.845078
  O    -23.542783   30.756332   47.081659
  H    -26.423679   30.192111   47.636926
  H    -25.712441   29.418823   46.208421
  H    -26.499825   27.372513   47.184591
  H    -26.582298   28.085196   48.813280
  H    -23.765336   30.718284   46.129130

 Multiplicity           Mult            ....    1
 Number of Electrons    NEL             ....  102
 Basis Dimension        Dim             ....  149

ORBITAL ENERGIES
----------------

  NO   OCC          E(Eh)            E(eV)
   0   2.0000     -19.155100      -521.2368
   1   2.0000     -19.136352      -520.7266
   2   2.0000     -19.135998      -520.7170
   3   2.0000     -19.133152      -520.6395
   4   2.0000     -10.274984      -279.5965
   5   2.0000     -10.248506      -278.8760
   6   2.0000     -10.231432      -278.4114
   7   2.0000     -10.231064      -278.4014
   8   2.0000     -10.230577      -278.3882
   9   2.0000     -10.223602      -278.1984
  10   2.0000     -10.200017      -277.5566
  11   2.0000     -10.192366      -277.3484
  12   2.0000     -10.190721      -277.3036
  13   2.0000      -1.045369       -28.4459
  14   2.0000      -1.036254       -28.1979
  15   2.0000      -1.016559       -27.6620
  16   2.0000      -0.989786       -26.9334
  17   2.0000      -0.786732       -21.4081
  18   2.0000      -0.785653       -21.3787
  19   2.0000      -0.770684       -20.9714
  20   2.0000      -0.731510       -19.9054
  21   2.0000      -0.685338       -18.6490
  22   2.0000      -0.614602       -16.7242
  23   2.0000      -0.605173       -16.4676
  24   2.0000      -0.596231       -16.2243
  25   2.0000      -0.566837       -15.4244
  26   2.0000      -0.524466       -14.2715
  27   2.0000      -0.516007       -14.0413
  28   2.0000      -0.503861       -13.7107
  29   2.0000      -0.497487       -13.5373
  30   2.0000      -0.464045       -12.6273
  31   2.0000      -0.452715       -12.3190
  32   2.0000      -0.444922       -12.1069
  33   2.0000      -0.432803       -11.7772
  34   2.0000      -0.431343       -11.7374
  35   2.0000      -0.425698       -11.5838
  36   2.0000      -0.413140       -11.2421
  37   2.0000      -0.398718       -10.8497
  38   2.0000      -0.380018       -10.3408
  39   2.0000      -0.377554       -10.2738
  40   2.0000      -0.360352        -9.8057
  41   2.0000      -0.357693        -9.7333
  42   2.0000      -0.348452        -9.4818
  43   2.0000      -0.331045        -9.0082
  44   2.0000      -0.320022        -8.7082
  45   2.0000      -0.309003        -8.4084
  46   2.0000      -0.288532        -7.8514
  47   2.0000      -0.274644        -7.4734
  48   2.0000      -0.268490        -7.3060
  49   2.0000      -0.249429        -6.7873
  50   2.0000      -0.233759        -6.3609
  51   0.0000       0.045432         1.2363
  52   0.0000       0.075098         2.0435
  53   0.0000       0.079848         2.1728
  54   0.0000       0.087687         2.3861
  55   0.0000       0.099516         2.7080

MULLIKEN ATOMIC CHARGES
-----------------------
   0 C :    0.311130
   1 C :   -0.304631
   2 C :   -0.317831
   3 C :   -0.007460
   4 O :   -0.493597
   5 H :    0.161819
   6 H :    0.158306
   7 H :    0.145856
   8 H :    0.145920
   9 H :    0.161165
  10 H :    0.148483
  11 H :    0.144392
  12 C :   -0.025906
  13 H :    0.130786
  14 H :    0.139196
  15 O :   -0.508556
  16 C :    0.098507
  17 C :    0.080571
  18 C :   -0.334879
  19 C :   -0.012872
  20 O :   -0.499214
  21 H :    0.158121
  22 H :    0.168534
  23 O :   -0.601967
  24 H :    0.160044
  25 H :    0.135333
  26 H :    0.150314
  27 H :    0.152325
  28 H :    0.356108
Sum of atomic charges:   -0.0000000

LOEWDIN ATOMIC CHARGES
----------------------
   0 C :    0.177801
   1 C :   -0.233193
   2 C :   -0.224956
   3 C :   -0.032629
   4 O :   -0.315200
   5 H :    0.109667
   6 H :    0.124129
   7 H :    0.114119
   8 H :    0.116378
   9 H :    0.112984
  10 H :    0.103358
  11 H :    0.103736
  12 C :   -0.051250
  13 H :    0.098440
  14 H :    0.102809
  15 O :   -0.310107
  16 C :    0.013223
  17 C :    0.032188
  18 C :   -0.243686
  19 C :   -0.030300
  20 O :   -0.308610
  21 H :    0.113991
  22 H :    0.119293
  23 O :   -0.410654
  24 H :    0.123187
  25 H :    0.104197
  26 H :    0.105872
  27 H :    0.107180
  28 H :    0.278032

  Mayer bond orders larger than 0.100000
B(  0-C ,  1-C ) :   0.9270 B(  0-C ,  4-O ) :   0.9081 B(  0-C ,  5-H ) :   0.9348
B(  0-C , 15-O ) :   0.8932 B(  1-C ,  2-C ) :   0.9510 B(  1-C ,  6-H ) :   0.9341
B(  1-C ,  7-H ) :   0.9301 B(  2-C ,  3-C ) :   0.9459 B(  2-C ,  8-H ) :   0.9462
B(  2-C ,  9-H ) :   0.9350 B(  3-C ,  4-O ) :   0.8502 B(  3-C , 10-H ) :   0.9303
B(  3-C , 11-H ) :   0.9389 B( 12-C , 13-H ) :   0.8935 B( 12-C , 14-H ) :   0.9354
B( 12-C , 15-O ) :   0.8659 B( 12-C , 16-C ) :   0.8867 B( 16-C , 17-C ) :   0.8672
B( 16-C , 20-O ) :   0.8720 B( 16-C , 21-H ) :   0.9273 B( 17-C , 18-C ) :   0.9286
B( 17-C , 22-H ) :   0.9317 B( 17-C , 23-O ) :   0.8899 B( 18-C , 19-C ) :   0.9397
B( 18-C , 24-H ) :   0.9403 B( 18-C , 25-H ) :   0.9400 B( 19-C , 20-O ) :   0.8523
B( 19-C , 26-H ) :   0.9301 B( 19-C , 27-H ) :   0.9367 B( 23-O , 28-H ) :   0.7993

FINAL SINGLE POINT ENERGY      -652.846375091213

DIPOLE MOMENT
-------------
                                X             Y             Z
Electronic contribution:     -1.09497      -3.91363       1.01997
Nuclear contribution   :      0.98332       5.36508      -1.90970
                        -----------------------------------------
Total Dipole Moment    :     -0.11165       1.45145      -0.88973
                        -----------------------------------------
Magnitude (a.u.)       :      1.70611
Magnitude (Debye)      :      4.33658

Rotational constants in cm-1:     0.048054     0.015524     0.013924
Rotational constants in MHz :  1440.610090   465.404243   417.422211

                             ****ORCA TERMINATED NORMALLY****
TOTAL RUN TIME: 0 days 1 hours 45 minutes 53 seconds 651 msec
