                         Program Version 4.2.0 -  RELEASE  -
|  1> # Test redundant internal optimization
|  2> #
|  3> ! RKS B3LYP  Opt TightSCF SmallPrint
|  4>
|  5> %basis
|  6>         Basis "6-31G"
|  7> end
|  8>
|  9> %geom
| 10> Constraints
| 11> { D 4  0  15  12  210.0   C } # D for Dihedral angle
| 12> { D 0  15  12  16  180.0   C } # D for Dihedral angle
| 13> { D 0  4  3  2   C } # D for Dihedral angle
| 14> { D 4  3  2  1   C } # D for Dihedral angle
| 15> { D 3  2  1  0   C } # D for Dihedral angle
| 16> { D 2  1  0  4   C } # D for Dihedral angle
| 17> { D 1  0  4  3   C } # D for Dihedral angle
| 18> { D 16  20  19  18   C } # D for Dihedral angle
| 19> { D 20  19  18  17   C } # D for Dihedral angle
| 20> { D 19  18  17  16   C } # D for Dihedral angle
| 21> { D 18  17  16  20   C } # D for Dihedral angle
| 22> { D 17  16  20  19   C } # D for Dihedral angle
| 23> { D 15  12  16  20   C } # D for Dihedral angle
| 24> end
| 25> end
| 26>
| 27>
| 28> #%pal
| 29> #nprocs 8
| 30> #end
| 31>
| 32> * xyz 0 1
| 33> C  -21.048   26.222   46.251
| 34> C  -20.361   27.558   45.944
| 35> C  -20.329   28.222   47.341
| 36> C  -20.110   27.022   48.296
| 37> O  -20.473   25.807   47.535
| 38> H  -20.833   25.428   45.533
| 39> H  -19.344   27.382   45.576
| 40> H  -20.898   28.157   45.201
| 41> H  -19.543   28.978   47.434
| 42> H  -21.289   28.710   47.548
| 43> H  -20.733   27.082   49.195
| 44> H  -19.064   26.913   48.597
| 45> C  -23.389   26.110   45.076
| 46> H  -23.052   26.792   44.286
| 47> H  -23.219   25.081   44.736
| 48> O  -22.586   26.394   46.375
| 49> C  -24.920   26.299   45.263
| 50> C  -25.450   25.440   46.417
| 51> C  -25.040   26.283   47.649
| 52> C  -25.199   27.740   47.147
| 53> O  -25.221   27.676   45.669
| 54> H  -25.421   26.131   44.308
| 55> O  -26.995   25.320   46.326
| 56> H  -25.025   24.430   46.433
| 57> H  -25.656   26.075   48.530
| 58> H  -23.996   26.078   47.915
| 59> H  -24.375   28.386   47.466
| 60> H  -26.145   28.190   47.464
| 61> H  -27.443   26.320   46.309
| 62> *
| 63>
| 64>                          ****END OF INPUT****
 Total Charge           Charge          ....    0
 Multiplicity           Mult            ....    1
 Number of Electrons    NEL             ....  102
FINAL SINGLE POINT ENERGY      -652.836243545635
FINAL SINGLE POINT ENERGY      -652.859108979244
FINAL SINGLE POINT ENERGY      -652.862936005820
FINAL SINGLE POINT ENERGY      -652.863882557444
FINAL SINGLE POINT ENERGY      -652.863998207376
FINAL SINGLE POINT ENERGY      -652.864013576786
                    ***********************HURRAY********************

CARTESIAN COORDINATES (ANGSTROEM)
---------------------------------
  C    -21.094905   26.214571   46.188580
  C    -20.400425   27.541463   45.891036
  C    -20.401787   28.221043   47.280220
  C    -20.210661   27.034154   48.247635
  O    -20.565342   25.819050   47.463491
  H    -20.885664   25.403653   45.482674
  H    -19.376973   27.347757   45.548735
  H    -20.917489   28.129813   45.127924
  H    -19.613464   28.972979   47.381018
  H    -21.367034   28.707544   47.449349
  H    -20.857717   27.082543   49.126640
  H    -19.172452   26.906292   48.567056
  C    -23.297864   26.117137   45.109581
  H    -22.985737   26.797947   44.304700
  H    -23.125001   25.081917   44.774991
  O    -22.534136   26.389842   46.315313
  C    -24.786554   26.334031   45.364572
  C    -25.430885   25.472294   46.459783
  C    -25.089435   26.280325   47.740029
  C    -25.164040   27.748731   47.255274
  O    -25.074282   27.708562   45.775311
  H    -25.306460   26.175139   44.412092
  O    -26.865864   25.358862   46.238405
  H    -25.063022   24.446301   46.486345
  H    -25.803279   26.058955   48.538312
  H    -24.078615   26.031675   48.065736
  H    -24.339588   28.355450   47.638762
  H    -26.113533   28.234493   47.505260
  H    -27.234790   26.253475   46.081176

 Multiplicity           Mult            ....    1
 Number of Electrons    NEL             ....  102
 Basis Dimension        Dim             ....  149

ORBITAL ENERGIES
----------------

  NO   OCC          E(Eh)            E(eV)
   0   2.0000     -19.148076      -521.0456
   1   2.0000     -19.144829      -520.9573
   2   2.0000     -19.137400      -520.7551
   3   2.0000     -19.132557      -520.6233
   4   2.0000     -10.284386      -279.8524
   5   2.0000     -10.236908      -278.5604
   6   2.0000     -10.234418      -278.4927
   7   2.0000     -10.234130      -278.4848
   8   2.0000     -10.228751      -278.3385
   9   2.0000     -10.221671      -278.1458
  10   2.0000     -10.189506      -277.2706
  11   2.0000     -10.189284      -277.2645
  12   2.0000     -10.172303      -276.8024
  13   2.0000      -1.058894       -28.8140
  14   2.0000      -1.031332       -28.0640
  15   2.0000      -1.003982       -27.3197
  16   2.0000      -0.995996       -27.1024
  17   2.0000      -0.790694       -21.5159
  18   2.0000      -0.776597       -21.1323
  19   2.0000      -0.762543       -20.7498
  20   2.0000      -0.733764       -19.9667
  21   2.0000      -0.674863       -18.3639
  22   2.0000      -0.603568       -16.4239
  23   2.0000      -0.597793       -16.2668
  24   2.0000      -0.593962       -16.1625
  25   2.0000      -0.579100       -15.7581
  26   2.0000      -0.528049       -14.3689
  27   2.0000      -0.503334       -13.6964
  28   2.0000      -0.499858       -13.6018
  29   2.0000      -0.486145       -13.2287
  30   2.0000      -0.477010       -12.9801
  31   2.0000      -0.456515       -12.4224
  32   2.0000      -0.448769       -12.2116
  33   2.0000      -0.442702       -12.0465
  34   2.0000      -0.420010       -11.4291
  35   2.0000      -0.412096       -11.2137
  36   2.0000      -0.404633       -11.0106
  37   2.0000      -0.385663       -10.4944
  38   2.0000      -0.374243       -10.1837
  39   2.0000      -0.369116       -10.0441
  40   2.0000      -0.359872        -9.7926
  41   2.0000      -0.356817        -9.7095
  42   2.0000      -0.353664        -9.6237
  43   2.0000      -0.327544        -8.9129
  44   2.0000      -0.316622        -8.6157
  45   2.0000      -0.312558        -8.5051
  46   2.0000      -0.300527        -8.1778
  47   2.0000      -0.267728        -7.2852
  48   2.0000      -0.265075        -7.2130
  49   2.0000      -0.254549        -6.9266
  50   2.0000      -0.242320        -6.5939
  51   0.0000       0.064470         1.7543
  52   0.0000       0.081985         2.2309
  53   0.0000       0.091080         2.4784
  54   0.0000       0.100826         2.7436
  55   0.0000       0.106873         2.9082

MULLIKEN ATOMIC CHARGES
-----------------------
   0 C :    0.299168
   1 C :   -0.262505
   2 C :   -0.303563
   3 C :   -0.003499
   4 O :   -0.505141
   5 H :    0.140377
   6 H :    0.145093
   7 H :    0.151885
   8 H :    0.144323
   9 H :    0.164540
  10 H :    0.151079
  11 H :    0.144070
  12 C :    0.004957
  13 H :    0.139507
  14 H :    0.126768
  15 O :   -0.519992
  16 C :    0.063777
  17 C :    0.078799
  18 C :   -0.288581
  19 C :   -0.021455
  20 O :   -0.528878
  21 H :    0.154947
  22 O :   -0.603964
  23 H :    0.152731
  24 H :    0.146521
  25 H :    0.183870
  26 H :    0.149438
  27 H :    0.133980
  28 H :    0.361748
Sum of atomic charges:    0.0000000

LOEWDIN ATOMIC CHARGES
----------------------
   0 C :    0.178912
   1 C :   -0.226060
   2 C :   -0.216911
   3 C :   -0.025984
   4 O :   -0.308098
   5 H :    0.097703
   6 H :    0.114084
   7 H :    0.119499
   8 H :    0.115674
   9 H :    0.118945
  10 H :    0.107579
  11 H :    0.103641
  12 C :   -0.037847
  13 H :    0.098377
  14 H :    0.094832
  15 O :   -0.333464
  16 C :    0.015793
  17 C :    0.040639
  18 C :   -0.242223
  19 C :   -0.032961
  20 O :   -0.331687
  21 H :    0.115915
  22 O :   -0.417824
  23 H :    0.116936
  24 H :    0.117537
  25 H :    0.135065
  26 H :    0.105452
  27 H :    0.095256
  28 H :    0.281221

  Mayer bond orders larger than 0.100000
B(  0-C ,  1-C ) :   0.9343 B(  0-C ,  4-O ) :   0.9354 B(  0-C ,  5-H ) :   0.9190
B(  0-C , 15-O ) :   0.8252 B(  1-C ,  2-C ) :   0.9536 B(  1-C ,  6-H ) :   0.9342
B(  1-C ,  7-H ) :   0.9352 B(  2-C ,  3-C ) :   0.9553 B(  2-C ,  8-H ) :   0.9447
B(  2-C ,  9-H ) :   0.9422 B(  3-C ,  4-O ) :   0.8354 B(  3-C , 10-H ) :   0.9348
B(  3-C , 11-H ) :   0.9395 B( 12-C , 13-H ) :   0.9138 B( 12-C , 14-H ) :   0.9069
B( 12-C , 15-O ) :   0.8431 B( 12-C , 16-C ) :   0.9104 B( 16-C , 17-C ) :   0.9088
B( 16-C , 20-O ) :   0.8752 B( 16-C , 21-H ) :   0.9225 B( 17-C , 18-C ) :   0.9245
B( 17-C , 22-O ) :   0.8896 B( 17-C , 23-H ) :   0.9355 B( 18-C , 19-C ) :   0.9455
B( 18-C , 24-H ) :   0.9376 B( 18-C , 25-H ) :   0.9156 B( 19-C , 20-O ) :   0.8370
B( 19-C , 26-H ) :   0.9334 B( 19-C , 27-H ) :   0.9374 B( 22-O , 28-H ) :   0.7966

FINAL SINGLE POINT ENERGY      -652.864013976295

DIPOLE MOMENT
-------------
                                X             Y             Z
Electronic contribution:     -3.36627      -2.94332      -1.55408
Nuclear contribution   :      4.27674       3.67979       1.40151
                        -----------------------------------------
Total Dipole Moment    :      0.91047       0.73647      -0.15257
                        -----------------------------------------
Magnitude (a.u.)       :      1.18094
Magnitude (Debye)      :      3.00171

Rotational constants in cm-1:     0.055308     0.014036     0.013784
Rotational constants in MHz :  1658.086811   420.775596   413.245520

                             ****ORCA TERMINATED NORMALLY****
TOTAL RUN TIME: 0 days 0 hours 20 minutes 55 seconds 464 msec
