                         Program Version 4.2.1 -  RELEASE  -
|  1> # Test redundant internal optimization
|  2> #
|  3> ! RKS B3LYP  Opt TightSCF SmallPrint
|  4>
|  5> %basis
|  6>         Basis "6-31G"
|  7> end
|  8>
|  9> %geom
| 10> Constraints
| 11> { D 4  0  19  14  45.0   C } # D for Dihedral angle
| 12> { D 0  19  14  12  105.0   C } # D for Dihedral angle
| 13> { D 0  4  3  2   C } # D for Dihedral angle
| 14> { D 4  3  2  1   C } # D for Dihedral angle
| 15> { D 3  2  1  0   C } # D for Dihedral angle
| 16> { D 2  1  0  4   C } # D for Dihedral angle
| 17> { D 1  0  4  3   C } # D for Dihedral angle
| 18> { D 14  15  16  17   C } # D for Dihedral angle
| 19> { D 15  16  17  12   C } # D for Dihedral angle
| 20> { D 16  17  12  14   C } # D for Dihedral angle
| 21> { D 17  12  14  15   C } # D for Dihedral angle
| 22> { D 12  14  15  16   C } # D for Dihedral angle
| 23> end
| 24> end
| 25>
| 26>
| 27> #%pal
| 28> #nprocs 8
| 29> #end
| 30>
| 31> * xyz 0 1
| 32> C  -21.048   26.222   46.251
| 33> C  -20.361   27.558   45.944
| 34> C  -20.329   28.222   47.341
| 35> C  -20.110   27.022   48.296
| 36> O  -20.473   25.807   47.535
| 37> H  -20.833   25.428   45.533
| 38> H  -19.344   27.382   45.576
| 39> H  -20.898   28.157   45.201
| 40> H  -19.543   28.978   47.434
| 41> H  -21.289   28.710   47.548
| 42> H  -20.733   27.082   49.195
| 43> H  -19.064   26.913   48.597
| 44> C  -23.329   28.515   47.164
| 45> H  -23.378   29.166   48.051
| 46> C  -22.896   27.093   47.540
| 47> C  -24.212   26.499   48.093
| 48> C  -25.297   27.162   47.209
| 49> O  -24.664   28.343   46.581
| 50> H  -22.707   28.992   46.405
| 51> O  -22.472   26.381   46.366
| 52> H  -22.079   27.071   48.270
| 53> H  -24.241   25.407   48.041
| 54> H  -24.343   26.787   49.144
| 55> H  -26.169   27.487   47.785
| 56> H  -25.632   26.508   46.398
| 57> *
| 58>
| 59>                          ****END OF INPUT****
 Total Charge           Charge          ....    0
 Multiplicity           Mult            ....    1
 Number of Electrons    NEL             ....   86
FINAL SINGLE POINT ENERGY      -538.401754412400
FINAL SINGLE POINT ENERGY      -538.425062569552
FINAL SINGLE POINT ENERGY      -538.427711268429
FINAL SINGLE POINT ENERGY      -538.428067653507
FINAL SINGLE POINT ENERGY      -538.428101330115
FINAL SINGLE POINT ENERGY      -538.428112283458
                    ***********************HURRAY********************

CARTESIAN COORDINATES (ANGSTROEM)
---------------------------------
  C    -21.088744   26.297399   46.402893
  C    -20.290356   27.518415   45.924836
  C    -19.967686   28.239902   47.264606
  C    -19.765101   27.056774   48.244468
  O    -20.393546   25.876709   47.600218
  H    -21.033479   25.458847   45.706875
  H    -19.370345   27.170495   45.443042
  H    -20.851058   28.133255   45.216977
  H    -19.075614   28.869970   47.196763
  H    -20.800087   28.878168   47.574622
  H    -20.226165   27.219040   49.223878
  H    -18.708507   26.811836   48.388063
  C    -23.578572   28.570386   47.316705
  H    -23.784047   29.167882   48.219159
  C    -23.091109   27.171905   47.697856
  C    -24.415135   26.462158   48.040563
  C    -25.421630   27.079839   47.042180
  O    -24.801609   28.332413   46.550377
  H    -22.894712   29.117597   46.665588
  O    -22.515275   26.472025   46.553391
  H    -22.395646   27.161126   48.541760
  H    -24.309449   25.380544   47.932272
  H    -24.695847   26.687603   49.076224
  H    -26.385991   27.315945   47.504858
  H    -25.584292   26.441766   46.169827

 Multiplicity           Mult            ....    1
 Number of Electrons    NEL             ....   86
 Basis Dimension        Dim             ....  127

ORBITAL ENERGIES
----------------

  NO   OCC          E(Eh)            E(eV)
   0   2.0000     -19.147993      -521.0434
   1   2.0000     -19.139940      -520.8242
   2   2.0000     -19.126756      -520.4655
   3   2.0000     -10.279520      -279.7199
   4   2.0000     -10.240413      -278.6558
   5   2.0000     -10.234637      -278.4986
   6   2.0000     -10.223073      -278.1840
   7   2.0000     -10.217125      -278.0221
   8   2.0000     -10.196166      -277.4518
   9   2.0000     -10.189564      -277.2721
  10   2.0000     -10.182305      -277.0746
  11   2.0000      -1.054745       -28.7011
  12   2.0000      -1.014111       -27.5954
  13   2.0000      -0.990787       -26.9607
  14   2.0000      -0.792364       -21.5613
  15   2.0000      -0.784161       -21.3381
  16   2.0000      -0.740187       -20.1415
  17   2.0000      -0.724268       -19.7083
  18   2.0000      -0.619931       -16.8692
  19   2.0000      -0.606758       -16.5107
  20   2.0000      -0.596688       -16.2367
  21   2.0000      -0.566641       -15.4191
  22   2.0000      -0.522084       -14.2066
  23   2.0000      -0.504460       -13.7271
  24   2.0000      -0.489702       -13.3255
  25   2.0000      -0.483413       -13.1543
  26   2.0000      -0.453253       -12.3336
  27   2.0000      -0.440590       -11.9891
  28   2.0000      -0.433892       -11.8068
  29   2.0000      -0.418878       -11.3983
  30   2.0000      -0.411309       -11.1923
  31   2.0000      -0.386864       -10.5271
  32   2.0000      -0.371466       -10.1081
  33   2.0000      -0.365883        -9.9562
  34   2.0000      -0.363054        -9.8792
  35   2.0000      -0.361194        -9.8286
  36   2.0000      -0.344396        -9.3715
  37   2.0000      -0.322339        -8.7713
  38   2.0000      -0.309052        -8.4097
  39   2.0000      -0.301116        -8.1938
  40   2.0000      -0.265807        -7.2330
  41   2.0000      -0.253681        -6.9030
  42   2.0000      -0.231290        -6.2937
  43   0.0000       0.067266         1.8304
  44   0.0000       0.088550         2.4096
  45   0.0000       0.094147         2.5619
  46   0.0000       0.101970         2.7747
  47   0.0000       0.112464         3.0603

MULLIKEN ATOMIC CHARGES
-----------------------
   0 C :    0.298628
   1 C :   -0.268127
   2 C :   -0.317505
   3 C :   -0.017792
   4 O :   -0.507997
   5 H :    0.165046
   6 H :    0.151454
   7 H :    0.158609
   8 H :    0.149231
   9 H :    0.148243
  10 H :    0.141800
  11 H :    0.150893
  12 C :    0.005591
  13 H :    0.121118
  14 C :    0.048750
  15 C :   -0.285043
  16 C :    0.001414
  17 O :   -0.521655
  18 H :    0.153257
  19 O :   -0.515557
  20 H :    0.143731
  21 H :    0.169736
  22 H :    0.136785
  23 H :    0.133093
  24 H :    0.156296
Sum of atomic charges:    0.0000000

LOEWDIN ATOMIC CHARGES
----------------------
   0 C :    0.178438
   1 C :   -0.228419
   2 C :   -0.224661
   3 C :   -0.035608
   4 O :   -0.320734
   5 H :    0.113028
   6 H :    0.119211
   7 H :    0.122973
   8 H :    0.118082
   9 H :    0.109142
  10 H :    0.098882
  11 H :    0.106205
  12 C :   -0.048009
  13 H :    0.089825
  14 C :    0.033948
  15 C :   -0.224040
  16 C :   -0.027562
  17 O :   -0.330001
  18 H :    0.112542
  19 O :   -0.317461
  20 H :    0.105456
  21 H :    0.131329
  22 H :    0.110288
  23 H :    0.097397
  24 H :    0.109751

  Mayer bond orders larger than 0.100000
B(  0-C ,  1-C ) :   0.9139 B(  0-C ,  4-O ) :   0.8996 B(  0-C ,  5-H ) :   0.9357
B(  0-C , 19-O ) :   0.8978 B(  1-C ,  2-C ) :   0.9552 B(  1-C ,  6-H ) :   0.9343
B(  1-C ,  7-H ) :   0.9348 B(  2-C ,  3-C ) :   0.9473 B(  2-C ,  8-H ) :   0.9449
B(  2-C ,  9-H ) :   0.9385 B(  3-C ,  4-O ) :   0.8410 B(  3-C , 10-H ) :   0.9303
B(  3-C , 11-H ) :   0.9389 B( 12-C , 13-H ) :   0.9100 B( 12-C , 14-C ) :   0.9145
B( 12-C , 17-O ) :   0.8724 B( 12-C , 18-H ) :   0.9294 B( 14-C , 15-C ) :   0.9534
B( 14-C , 19-O ) :   0.8259 B( 14-C , 20-H ) :   0.9119 B( 15-C , 16-C ) :   0.9479
B( 15-C , 21-H ) :   0.9360 B( 15-C , 22-H ) :   0.9426 B( 16-C , 17-O ) :   0.8513
B( 16-C , 23-H ) :   0.9337 B( 16-C , 24-H ) :   0.9360

FINAL SINGLE POINT ENERGY      -538.428111858233

DIPOLE MOMENT
-------------
                                X             Y             Z
Electronic contribution:     -1.31385      -2.54712      -1.90206
Nuclear contribution   :      2.06685       2.98846       2.60625
                        -----------------------------------------
Total Dipole Moment    :      0.75299       0.44134       0.70419
                        -----------------------------------------
Magnitude (a.u.)       :      1.12146
Magnitude (Debye)      :      2.85051

Rotational constants in cm-1:     0.077376     0.022795     0.021460
Rotational constants in MHz :  2319.663191   683.376354   643.366244

                             ****ORCA TERMINATED NORMALLY****
TOTAL RUN TIME: 0 days 0 hours 8 minutes 46 seconds 829 msec
