                         Program Version 4.2.0 -  RELEASE  -
|  1> # Test redundant internal optimization
|  2> #
|  3> ! RKS B3LYP  Opt TightSCF SmallPrint
|  4>
|  5> %basis
|  6>         Basis "6-31G"
|  7> end
|  8>
|  9> %geom
| 10> Constraints
| 11> { D 4  0  15  12  330.0   C } # D for Dihedral angle
| 12> { D 0  15  12  16  120.0   C } # D for Dihedral angle
| 13> { D 0  4  3  2   C } # D for Dihedral angle
| 14> { D 4  3  2  1   C } # D for Dihedral angle
| 15> { D 3  2  1  0   C } # D for Dihedral angle
| 16> { D 2  1  0  4   C } # D for Dihedral angle
| 17> { D 1  0  4  3   C } # D for Dihedral angle
| 18> { D 16  20  19  18   C } # D for Dihedral angle
| 19> { D 20  19  18  17   C } # D for Dihedral angle
| 20> { D 19  18  17  16   C } # D for Dihedral angle
| 21> { D 18  17  16  20   C } # D for Dihedral angle
| 22> { D 17  16  20  19   C } # D for Dihedral angle
| 23> { D 15  12  16  20   C } # D for Dihedral angle
| 24> end
| 25> end
| 26>
| 27>
| 28> #%pal
| 29> #nprocs 8
| 30> #end
| 31>
| 32> * xyz 0 1
| 33> C  -21.048   26.222   46.251
| 34> C  -20.361   27.558   45.944
| 35> C  -20.329   28.222   47.341
| 36> C  -20.110   27.022   48.296
| 37> O  -20.473   25.807   47.535
| 38> H  -20.833   25.428   45.533
| 39> H  -19.344   27.382   45.576
| 40> H  -20.898   28.157   45.201
| 41> H  -19.543   28.978   47.434
| 42> H  -21.289   28.710   47.548
| 43> H  -20.733   27.082   49.195
| 44> H  -19.064   26.913   48.597
| 45> C  -23.271   25.476   47.424
| 46> H  -24.005   24.835   46.920
| 47> H  -22.529   24.830   47.912
| 48> O  -22.586   26.394   46.375
| 49> C  -24.004   26.276   48.536
| 50> C  -24.568   25.344   49.613
| 51> C  -23.306   25.036   50.453
| 52> C  -22.514   26.367   50.400
| 53> O  -23.058   27.133   49.259
| 54> H  -24.744   26.934   48.074
| 55> H  -25.314   25.873   50.217
| 56> O  -25.229   24.065   49.029
| 57> H  -23.541   24.731   51.478
| 58> H  -22.731   24.226   49.987
| 59> H  -21.441   26.210   50.247
| 60> H  -22.660   26.976   51.297
| 61> H  -24.500   23.518   48.421
| 62> *
| 63>
| 64>                          ****END OF INPUT****
 Total Charge           Charge          ....    0
 Multiplicity           Mult            ....    1
 Number of Electrons    NEL             ....  102
FINAL SINGLE POINT ENERGY      -652.825682360833
FINAL SINGLE POINT ENERGY      -652.847535113981
FINAL SINGLE POINT ENERGY      -652.857934609665
FINAL SINGLE POINT ENERGY      -652.860147699341
FINAL SINGLE POINT ENERGY      -652.860571035951
FINAL SINGLE POINT ENERGY      -652.860672549190
FINAL SINGLE POINT ENERGY      -652.860681773754
FINAL SINGLE POINT ENERGY      -652.860682586495
                    ***********************HURRAY********************

CARTESIAN COORDINATES (ANGSTROEM)
---------------------------------
  C    -21.040798   26.238695   46.256123
  C    -20.510659   27.636137   45.939928
  C    -20.331523   28.229827   47.353884
  C    -19.889716   27.019849   48.198749
  O    -20.274130   25.812357   47.403104
  H    -20.835906   25.487416   45.485055
  H    -19.551582   27.543969   45.417349
  H    -21.205017   28.205913   45.318544
  H    -19.600089   29.043912   47.378894
  H    -21.291386   28.601974   47.720688
  H    -20.383619   26.983053   49.166489
  H    -18.804904   26.958332   48.330376
  C    -23.135679   25.419614   47.385479
  H    -23.883652   24.841636   46.829590
  H    -22.393001   24.735653   47.817295
  O    -22.476043   26.310047   46.447109
  C    -23.851875   26.211379   48.479573
  C    -24.590179   25.350531   49.518887
  C    -23.453339   25.039499   50.536695
  C    -22.614152   26.331623   50.526841
  O    -22.976289   27.067149   49.280458
  H    -24.535838   26.905340   47.979839
  H    -25.374501   25.945466   49.991130
  O    -25.279969   24.190324   48.997072
  H    -23.840713   24.788704   51.527387
  H    -22.867120   24.183962   50.175128
  H    -21.539223   26.131704   50.530525
  H    -22.855781   26.993919   51.363441
  H    -24.639318   23.497017   48.737368

 Multiplicity           Mult            ....    1
 Number of Electrons    NEL             ....  102
 Basis Dimension        Dim             ....  149

ORBITAL ENERGIES
----------------

  NO   OCC          E(Eh)            E(eV)
   0   2.0000     -19.150379      -521.1083
   1   2.0000     -19.144510      -520.9486
   2   2.0000     -19.142878      -520.9042
   3   2.0000     -19.134452      -520.6749
   4   2.0000     -10.273288      -279.5504
   5   2.0000     -10.246108      -278.8108
   6   2.0000     -10.233885      -278.4782
   7   2.0000     -10.229058      -278.3468
   8   2.0000     -10.225985      -278.2632
   9   2.0000     -10.219215      -278.0790
  10   2.0000     -10.196374      -277.4574
  11   2.0000     -10.177494      -276.9437
  12   2.0000     -10.174356      -276.8583
  13   2.0000      -1.047866       -28.5139
  14   2.0000      -1.034280       -28.1442
  15   2.0000      -1.017207       -27.6796
  16   2.0000      -0.988156       -26.8891
  17   2.0000      -0.786246       -21.3948
  18   2.0000      -0.781299       -21.2602
  19   2.0000      -0.764949       -20.8153
  20   2.0000      -0.729463       -19.8497
  21   2.0000      -0.677222       -18.4281
  22   2.0000      -0.613564       -16.6959
  23   2.0000      -0.595162       -16.1952
  24   2.0000      -0.586810       -15.9679
  25   2.0000      -0.570391       -15.5211
  26   2.0000      -0.526802       -14.3350
  27   2.0000      -0.513459       -13.9719
  28   2.0000      -0.492350       -13.3975
  29   2.0000      -0.484520       -13.1845
  30   2.0000      -0.471275       -12.8240
  31   2.0000      -0.460362       -12.5271
  32   2.0000      -0.442505       -12.0412
  33   2.0000      -0.434190       -11.8149
  34   2.0000      -0.423416       -11.5217
  35   2.0000      -0.414873       -11.2893
  36   2.0000      -0.402578       -10.9547
  37   2.0000      -0.393357       -10.7038
  38   2.0000      -0.380456       -10.3527
  39   2.0000      -0.367463        -9.9992
  40   2.0000      -0.353429        -9.6173
  41   2.0000      -0.347371        -9.4524
  42   2.0000      -0.341822        -9.3015
  43   2.0000      -0.332918        -9.0592
  44   2.0000      -0.325626        -8.8607
  45   2.0000      -0.316244        -8.6054
  46   2.0000      -0.292953        -7.9717
  47   2.0000      -0.272117        -7.4047
  48   2.0000      -0.262459        -7.1419
  49   2.0000      -0.258043        -7.0217
  50   2.0000      -0.236788        -6.4433
  51   0.0000       0.050573         1.3762
  52   0.0000       0.071940         1.9576
  53   0.0000       0.091072         2.4782
  54   0.0000       0.100947         2.7469
  55   0.0000       0.102438         2.7875

MULLIKEN ATOMIC CHARGES
-----------------------
   0 C :    0.309668
   1 C :   -0.263786
   2 C :   -0.306093
   3 C :   -0.016242
   4 O :   -0.521590
   5 H :    0.142558
   6 H :    0.140561
   7 H :    0.159108
   8 H :    0.135724
   9 H :    0.183892
  10 H :    0.153625
  11 H :    0.139597
  12 C :   -0.025100
  13 H :    0.142743
  14 H :    0.144494
  15 O :   -0.534191
  16 C :    0.101807
  17 C :    0.082317
  18 C :   -0.316242
  19 C :   -0.021311
  20 O :   -0.514840
  21 H :    0.163627
  22 H :    0.167462
  23 O :   -0.598903
  24 H :    0.155874
  25 H :    0.138773
  26 H :    0.147165
  27 H :    0.152266
  28 H :    0.357037
Sum of atomic charges:    0.0000000

LOEWDIN ATOMIC CHARGES
----------------------
   0 C :    0.182436
   1 C :   -0.215649
   2 C :   -0.218834
   3 C :   -0.030168
   4 O :   -0.328717
   5 H :    0.093161
   6 H :    0.111549
   7 H :    0.125582
   8 H :    0.111549
   9 H :    0.129686
  10 H :    0.107600
  11 H :    0.100195
  12 C :   -0.051679
  13 H :    0.106775
  14 H :    0.103267
  15 O :   -0.332851
  16 C :    0.014751
  17 C :    0.035536
  18 C :   -0.238690
  19 C :   -0.033741
  20 O :   -0.320480
  21 H :    0.117867
  22 H :    0.119485
  23 O :   -0.405429
  24 H :    0.122620
  25 H :    0.107191
  26 H :    0.101530
  27 H :    0.106823
  28 H :    0.278634

  Mayer bond orders larger than 0.100000
B(  0-C ,  1-C ) :   0.9437 B(  0-C ,  4-O ) :   0.9074 B(  0-C ,  5-H ) :   0.9263
B(  0-C , 15-O ) :   0.8487 B(  1-C ,  2-C ) :   0.9573 B(  1-C ,  6-H ) :   0.9383
B(  1-C ,  7-H ) :   0.9361 B(  2-C ,  3-C ) :   0.9615 B(  2-C ,  8-H ) :   0.9443
B(  2-C ,  9-H ) :   0.9318 B(  3-C ,  4-O ) :   0.8293 B(  3-C , 10-H ) :   0.9164
B(  3-C , 11-H ) :   0.9404 B( 12-C , 13-H ) :   0.9149 B( 12-C , 14-H ) :   0.9150
B( 12-C , 15-O ) :   0.8464 B( 12-C , 16-C ) :   0.8991 B( 16-C , 17-C ) :   0.8703
B( 16-C , 20-O ) :   0.8566 B( 16-C , 21-H ) :   0.9309 B( 17-C , 18-C ) :   0.9230
B( 17-C , 22-H ) :   0.9333 B( 17-C , 23-O ) :   0.8988 B( 18-C , 19-C ) :   0.9410
B( 18-C , 24-H ) :   0.9419 B( 18-C , 25-H ) :   0.9405 B( 19-C , 20-O ) :   0.8472
B( 19-C , 26-H ) :   0.9172 B( 19-C , 27-H ) :   0.9380 B( 23-O , 28-H ) :   0.7975

FINAL SINGLE POINT ENERGY      -652.860681540426

DIPOLE MOMENT
-------------
                                X             Y             Z
Electronic contribution:     -3.17781      -1.78479      -2.04630
Nuclear contribution   :      3.79681       1.59835       2.67315
                        -----------------------------------------
Total Dipole Moment    :      0.61900      -0.18644       0.62684
                        -----------------------------------------
Magnitude (a.u.)       :      0.90047
Magnitude (Debye)      :      2.28882

Rotational constants in cm-1:     0.049965     0.017104     0.014887
Rotational constants in MHz :  1497.918312   512.752382   446.304818

                             ****ORCA TERMINATED NORMALLY****
TOTAL RUN TIME: 0 days 2 hours 40 minutes 0 seconds 154 msec
