                         Program Version 4.2.1 -  RELEASE  -
|  1> # Test redundant internal optimization
|  2> #
|  3> ! RKS B3LYP  Opt TightSCF SmallPrint
|  4>
|  5> %basis
|  6>         Basis "6-31G"
|  7> end
|  8>
|  9> %geom
| 10> Constraints
| 11> { D 4  0  19  14  45.0   C } # D for Dihedral angle
| 12> { D 0  19  14  12  90.0   C } # D for Dihedral angle
| 13> { D 0  4  3  2   C } # D for Dihedral angle
| 14> { D 4  3  2  1   C } # D for Dihedral angle
| 15> { D 3  2  1  0   C } # D for Dihedral angle
| 16> { D 2  1  0  4   C } # D for Dihedral angle
| 17> { D 1  0  4  3   C } # D for Dihedral angle
| 18> { D 14  15  16  17   C } # D for Dihedral angle
| 19> { D 15  16  17  12   C } # D for Dihedral angle
| 20> { D 16  17  12  14   C } # D for Dihedral angle
| 21> { D 17  12  14  15   C } # D for Dihedral angle
| 22> { D 12  14  15  16   C } # D for Dihedral angle
| 23> end
| 24> end
| 25>
| 26>
| 27> #%pal
| 28> #nprocs 8
| 29> #end
| 30>
| 31> * xyz 0 1
| 32> C  -21.048   26.222   46.251
| 33> C  -20.361   27.558   45.944
| 34> C  -20.329   28.222   47.341
| 35> C  -20.110   27.022   48.296
| 36> O  -20.473   25.807   47.535
| 37> H  -20.833   25.428   45.533
| 38> H  -19.344   27.382   45.576
| 39> H  -20.898   28.157   45.201
| 40> H  -19.543   28.978   47.434
| 41> H  -21.289   28.710   47.548
| 42> H  -20.733   27.082   49.195
| 43> H  -19.064   26.913   48.597
| 44> C  -22.970   28.595   47.245
| 45> H  -23.005   29.185   48.174
| 46> C  -22.896   27.093   47.540
| 47> C  -24.369   26.765   47.876
| 48> C  -25.163   27.701   46.930
| 49> O  -24.220   28.754   46.492
| 50> H  -22.166   28.973   46.611
| 51> O  -22.472   26.381   46.366
| 52> H  -22.209   26.849   48.358
| 53> H  -24.615   25.710   47.722
| 54> H  -24.580   27.008   48.925
| 55> H  -26.020   28.171   47.425
| 56> H  -25.512   27.187   46.030
| 57> *
| 58>
| 59>                          ****END OF INPUT****
 Total Charge           Charge          ....    0
 Multiplicity           Mult            ....    1
 Number of Electrons    NEL             ....   86
FINAL SINGLE POINT ENERGY      -538.373903409084
FINAL SINGLE POINT ENERGY      -538.421010303202
FINAL SINGLE POINT ENERGY      -538.425384968342
FINAL SINGLE POINT ENERGY      -538.426068054746
FINAL SINGLE POINT ENERGY      -538.426161313521
FINAL SINGLE POINT ENERGY      -538.426200045020
FINAL SINGLE POINT ENERGY      -538.426202145354
                    ***********************HURRAY********************

CARTESIAN COORDINATES (ANGSTROEM)
---------------------------------
  C    -21.090707   26.312709   46.419299
  C    -20.247737   27.493735   45.913264
  C    -19.877339   28.223780   47.239715
  C    -19.712354   27.044004   48.232133
  O    -20.396690   25.884182   47.613322
  H    -21.057369   25.465086   45.731965
  H    -19.349932   27.096626   45.428870
  H    -20.790189   28.121973   45.202447
  H    -18.955103   28.806322   47.148833
  H    -20.665684   28.906620   47.556823
  H    -20.155155   27.238871   49.213843
  H    -18.665369   26.756711   48.366510
  C    -23.306547   28.692482   47.476255
  H    -23.536415   29.190617   48.431411
  C    -23.129311   27.190392   47.695889
  C    -24.591303   26.711189   47.768176
  C    -25.320866   27.631793   46.761073
  O    -24.430053   28.794451   46.541160
  H    -22.468258   29.193963   46.998011
  O    -22.516719   26.497790   46.570036
  H    -22.574717   26.954210   48.611831
  H    -24.659992   25.652083   47.511994
  H    -24.973107   26.854573   48.785760
  H    -26.286363   27.987084   47.136657
  H    -25.464720   27.151755   45.789724

 Multiplicity           Mult            ....    1
 Number of Electrons    NEL             ....   86
 Basis Dimension        Dim             ....  127

ORBITAL ENERGIES
----------------

  NO   OCC          E(Eh)            E(eV)
   0   2.0000     -19.146903      -521.0137
   1   2.0000     -19.140099      -520.8286
   2   2.0000     -19.127377      -520.4824
   3   2.0000     -10.279218      -279.7117
   4   2.0000     -10.240485      -278.6578
   5   2.0000     -10.233023      -278.4547
   6   2.0000     -10.223002      -278.1820
   7   2.0000     -10.217620      -278.0356
   8   2.0000     -10.194383      -277.4033
   9   2.0000     -10.189516      -277.2708
  10   2.0000     -10.183316      -277.1021
  11   2.0000      -1.053520       -28.6677
  12   2.0000      -1.014180       -27.5973
  13   2.0000      -0.991053       -26.9679
  14   2.0000      -0.791556       -21.5393
  15   2.0000      -0.784084       -21.3360
  16   2.0000      -0.740297       -20.1445
  17   2.0000      -0.724837       -19.7238
  18   2.0000      -0.621795       -16.9199
  19   2.0000      -0.606871       -16.5138
  20   2.0000      -0.596759       -16.2386
  21   2.0000      -0.564879       -15.3711
  22   2.0000      -0.516843       -14.0640
  23   2.0000      -0.504618       -13.7314
  24   2.0000      -0.492122       -13.3913
  25   2.0000      -0.485008       -13.1977
  26   2.0000      -0.453264       -12.3339
  27   2.0000      -0.439946       -11.9715
  28   2.0000      -0.437241       -11.8979
  29   2.0000      -0.417806       -11.3691
  30   2.0000      -0.410122       -11.1600
  31   2.0000      -0.386837       -10.5264
  32   2.0000      -0.372776       -10.1438
  33   2.0000      -0.364047        -9.9062
  34   2.0000      -0.361261        -9.8304
  35   2.0000      -0.360106        -9.7990
  36   2.0000      -0.345293        -9.3959
  37   2.0000      -0.320888        -8.7318
  38   2.0000      -0.305714        -8.3189
  39   2.0000      -0.303002        -8.2451
  40   2.0000      -0.264934        -7.2092
  41   2.0000      -0.253949        -6.9103
  42   2.0000      -0.232335        -6.3222
  43   0.0000       0.069283         1.8853
  44   0.0000       0.091044         2.4774
  45   0.0000       0.093882         2.5547
  46   0.0000       0.100684         2.7398
  47   0.0000       0.113413         3.0861

MULLIKEN ATOMIC CHARGES
-----------------------
   0 C :    0.307210
   1 C :   -0.272138
   2 C :   -0.316816
   3 C :   -0.014806
   4 O :   -0.510675
   5 H :    0.164702
   6 H :    0.152757
   7 H :    0.160704
   8 H :    0.148090
   9 H :    0.145753
  10 H :    0.140571
  11 H :    0.150340
  12 C :   -0.003120
  13 H :    0.122192
  14 C :    0.066065
  15 C :   -0.290250
  16 C :    0.004930
  17 O :   -0.525884
  18 H :    0.158133
  19 O :   -0.524397
  20 H :    0.141547
  21 H :    0.169576
  22 H :    0.138887
  23 H :    0.132867
  24 H :    0.153761
Sum of atomic charges:    0.0000000

LOEWDIN ATOMIC CHARGES
----------------------
   0 C :    0.179742
   1 C :   -0.228446
   2 C :   -0.225645
   3 C :   -0.034200
   4 O :   -0.320751
   5 H :    0.112218
   6 H :    0.120765
   7 H :    0.124431
   8 H :    0.117298
   9 H :    0.108922
  10 H :    0.099269
  11 H :    0.105568
  12 C :   -0.051954
  13 H :    0.091355
  14 C :    0.037609
  15 C :   -0.222102
  16 C :   -0.026933
  17 O :   -0.332059
  18 H :    0.113508
  19 O :   -0.320657
  20 H :    0.103309
  21 H :    0.131708
  22 H :    0.111249
  23 H :    0.097145
  24 H :    0.108652

  Mayer bond orders larger than 0.100000
B(  0-C ,  1-C ) :   0.9133 B(  0-C ,  4-O ) :   0.8976 B(  0-C ,  5-H ) :   0.9362
B(  0-C , 19-O ) :   0.8948 B(  1-C ,  2-C ) :   0.9567 B(  1-C ,  6-H ) :   0.9336
B(  1-C ,  7-H ) :   0.9342 B(  2-C ,  3-C ) :   0.9472 B(  2-C ,  8-H ) :   0.9449
B(  2-C ,  9-H ) :   0.9316 B(  3-C ,  4-O ) :   0.8411 B(  3-C , 10-H ) :   0.9330
B(  3-C , 11-H ) :   0.9394 B( 12-C , 13-H ) :   0.9095 B( 12-C , 14-C ) :   0.9082
B( 12-C , 17-O ) :   0.8661 B( 12-C , 18-H ) :   0.9220 B( 14-C , 15-C ) :   0.9555
B( 14-C , 19-O ) :   0.8293 B( 14-C , 20-H ) :   0.9161 B( 15-C , 16-C ) :   0.9471
B( 15-C , 21-H ) :   0.9358 B( 15-C , 22-H ) :   0.9431 B( 16-C , 17-O ) :   0.8510
B( 16-C , 23-H ) :   0.9338 B( 16-C , 24-H ) :   0.9367

FINAL SINGLE POINT ENERGY      -538.426200801443

DIPOLE MOMENT
-------------
                                X             Y             Z
Electronic contribution:     -1.10702      -2.44496      -1.57992
Nuclear contribution   :      1.67889       2.76645       2.20033
                        -----------------------------------------
Total Dipole Moment    :      0.57187       0.32149       0.62041
                        -----------------------------------------
Magnitude (a.u.)       :      0.90294
Magnitude (Debye)      :      2.29509

Rotational constants in cm-1:     0.076122     0.023088     0.021580
Rotational constants in MHz :  2282.080862   692.168466   646.965634

                             ****ORCA TERMINATED NORMALLY****
TOTAL RUN TIME: 0 days 0 hours 9 minutes 18 seconds 221 msec
