                         Program Version 4.2.1 -  RELEASE  -
|  1> # Test redundant internal optimization
|  2> #
|  3> ! RKS B3LYP  Opt TightSCF SmallPrint
|  4>
|  5> %basis
|  6>         Basis "6-31G"
|  7> end
|  8>
|  9> %geom
| 10> Constraints
| 11> { D 4  0  19  14  255.0   C } # D for Dihedral angle
| 12> { D 0  19  14  12  255.0   C } # D for Dihedral angle
| 13> { D 0  4  3  2   C } # D for Dihedral angle
| 14> { D 4  3  2  1   C } # D for Dihedral angle
| 15> { D 3  2  1  0   C } # D for Dihedral angle
| 16> { D 2  1  0  4   C } # D for Dihedral angle
| 17> { D 1  0  4  3   C } # D for Dihedral angle
| 18> { D 14  15  16  17   C } # D for Dihedral angle
| 19> { D 15  16  17  12   C } # D for Dihedral angle
| 20> { D 16  17  12  14   C } # D for Dihedral angle
| 21> { D 17  12  14  15   C } # D for Dihedral angle
| 22> { D 12  14  15  16   C } # D for Dihedral angle
| 23> end
| 24> end
| 25>
| 26>
| 27> #%pal
| 28> #nprocs 8
| 29> #end
| 30>
| 31> * xyz 0 1
| 32> C  -21.048   26.222   46.251
| 33> C  -20.361   27.558   45.944
| 34> C  -20.329   28.222   47.341
| 35> C  -20.110   27.022   48.296
| 36> O  -20.473   25.807   47.535
| 37> H  -20.833   25.428   45.533
| 38> H  -19.344   27.382   45.576
| 39> H  -20.898   28.157   45.201
| 40> H  -19.543   28.978   47.434
| 41> H  -21.289   28.710   47.548
| 42> H  -20.733   27.082   49.195
| 43> H  -19.064   26.913   48.597
| 44> C  -23.851   25.800   44.446
| 45> H  -24.661   25.131   44.116
| 46> C  -23.236   25.322   45.767
| 47> C  -22.308   24.182   45.287
| 48> C  -21.802   24.694   43.915
| 49> O  -22.736   25.762   43.494
| 50> H  -24.220   26.827   44.464
| 51> O  -22.472   26.381   46.366
| 52> H  -23.985   24.984   46.492
| 53> H  -21.490   23.978   45.985
| 54> H  -22.882   23.255   45.165
| 55> H  -21.788   23.908   43.152
| 56> H  -20.806   25.144   43.979
| 57> *
| 58>
| 59>                          ****END OF INPUT****
 Total Charge           Charge          ....    0
 Multiplicity           Mult            ....    1
 Number of Electrons    NEL             ....   86
FINAL SINGLE POINT ENERGY      -538.406654813138
FINAL SINGLE POINT ENERGY      -538.428042229691
FINAL SINGLE POINT ENERGY      -538.429879222420
FINAL SINGLE POINT ENERGY      -538.430182660680
FINAL SINGLE POINT ENERGY      -538.430209130137
FINAL SINGLE POINT ENERGY      -538.430214974529
                    ***********************HURRAY********************

CARTESIAN COORDINATES (ANGSTROEM)
---------------------------------
  C    -20.808612   26.298054   46.238568
  C    -20.313232   27.731987   46.042725
  C    -20.437757   28.310228   47.473078
  C    -20.086853   27.098657   48.367088
  O    -20.241263   25.899583   47.509063
  H    -20.451405   25.581169   45.502282
  H    -19.265598   27.713226   45.719968
  H    -20.905574   28.269686   45.300347
  H    -19.771298   29.160722   47.643730
  H    -21.467814   28.633406   47.649526
  H    -20.747517   27.001048   49.232626
  H    -19.046683   27.110466   48.707357
  C    -23.755886   25.852083   44.430243
  H    -24.694720   25.320790   44.215817
  C    -23.106397   25.316358   45.708045
  C    -22.438824   24.026996   45.197422
  C    -21.986349   24.395602   43.761301
  O    -22.763386   25.597363   43.377006
  H    -23.935199   26.926702   44.466513
  O    -22.248405   26.336237   46.307144
  H    -23.853276   25.098146   46.478024
  H    -21.621724   23.686340   45.840020
  H    -23.195667   23.235468   45.174087
  H    -22.193272   23.593823   43.043115
  H    -20.925290   24.654860   43.693905

 Multiplicity           Mult            ....    1
 Number of Electrons    NEL             ....   86
 Basis Dimension        Dim             ....  127

ORBITAL ENERGIES
----------------

  NO   OCC          E(Eh)            E(eV)
   0   2.0000     -19.138252      -520.7783
   1   2.0000     -19.134551      -520.6776
   2   2.0000     -19.132719      -520.6277
   3   2.0000     -10.275381      -279.6073
   4   2.0000     -10.242209      -278.7047
   5   2.0000     -10.228810      -278.3401
   6   2.0000     -10.221707      -278.1468
   7   2.0000     -10.219783      -278.0944
   8   2.0000     -10.193391      -277.3763
   9   2.0000     -10.179851      -277.0078
  10   2.0000     -10.178812      -276.9795
  11   2.0000      -1.048167       -28.5221
  12   2.0000      -1.016076       -27.6488
  13   2.0000      -0.986487       -26.8437
  14   2.0000      -0.790916       -21.5219
  15   2.0000      -0.774632       -21.0788
  16   2.0000      -0.747579       -20.3426
  17   2.0000      -0.717814       -19.5327
  18   2.0000      -0.615864       -16.7585
  19   2.0000      -0.604974       -16.4622
  20   2.0000      -0.592249       -16.1159
  21   2.0000      -0.566113       -15.4047
  22   2.0000      -0.526602       -14.3296
  23   2.0000      -0.502449       -13.6723
  24   2.0000      -0.481018       -13.0892
  25   2.0000      -0.477156       -12.9841
  26   2.0000      -0.453946       -12.3525
  27   2.0000      -0.438347       -11.9280
  28   2.0000      -0.426785       -11.6134
  29   2.0000      -0.417129       -11.3506
  30   2.0000      -0.402828       -10.9615
  31   2.0000      -0.393918       -10.7191
  32   2.0000      -0.370654       -10.0860
  33   2.0000      -0.369000       -10.0410
  34   2.0000      -0.358321        -9.7504
  35   2.0000      -0.350851        -9.5471
  36   2.0000      -0.342661        -9.3243
  37   2.0000      -0.316802        -8.6206
  38   2.0000      -0.308780        -8.4023
  39   2.0000      -0.294814        -8.0223
  40   2.0000      -0.262257        -7.1364
  41   2.0000      -0.249887        -6.7998
  42   2.0000      -0.235153        -6.3988
  43   0.0000       0.074692         2.0325
  44   0.0000       0.097907         2.6642
  45   0.0000       0.101937         2.7738
  46   0.0000       0.108788         2.9603
  47   0.0000       0.111676         3.0389

MULLIKEN ATOMIC CHARGES
-----------------------
   0 C :    0.285080
   1 C :   -0.249277
   2 C :   -0.297030
   3 C :   -0.000615
   4 O :   -0.512095
   5 H :    0.144424
   6 H :    0.139842
   7 H :    0.156100
   8 H :    0.137513
   9 H :    0.160917
  10 H :    0.146850
  11 H :    0.138596
  12 C :   -0.004182
  13 H :    0.123944
  14 C :    0.100282
  15 C :   -0.345566
  16 C :   -0.011363
  17 O :   -0.523299
  18 H :    0.166399
  19 O :   -0.530225
  20 H :    0.147681
  21 H :    0.178340
  22 H :    0.155606
  23 H :    0.142027
  24 H :    0.150050
Sum of atomic charges:   -0.0000000

LOEWDIN ATOMIC CHARGES
----------------------
   0 C :    0.173248
   1 C :   -0.214704
   2 C :   -0.216029
   3 C :   -0.027220
   4 O :   -0.328528
   5 H :    0.101187
   6 H :    0.111090
   7 H :    0.123321
   8 H :    0.111984
   9 H :    0.118554
  10 H :    0.104960
  11 H :    0.100443
  12 C :   -0.044210
  13 H :    0.091485
  14 C :    0.047091
  15 C :   -0.244039
  16 C :   -0.036318
  17 O :   -0.334929
  18 H :    0.121544
  19 O :   -0.324729
  20 H :    0.109661
  21 H :    0.131600
  22 H :    0.122991
  23 H :    0.101264
  24 H :    0.100283

  Mayer bond orders larger than 0.100000
B(  0-C ,  1-C ) :   0.9444 B(  0-C ,  4-O ) :   0.9125 B(  0-C ,  5-H ) :   0.9082
B(  0-C , 19-O ) :   0.8488 B(  1-C ,  2-C ) :   0.9577 B(  1-C ,  6-H ) :   0.9400
B(  1-C ,  7-H ) :   0.9368 B(  2-C ,  3-C ) :   0.9539 B(  2-C ,  8-H ) :   0.9459
B(  2-C ,  9-H ) :   0.9440 B(  3-C ,  4-O ) :   0.8403 B(  3-C , 10-H ) :   0.9356
B(  3-C , 11-H ) :   0.9402 B( 12-C , 13-H ) :   0.9123 B( 12-C , 14-C ) :   0.9156
B( 12-C , 17-O ) :   0.8632 B( 12-C , 18-H ) :   0.9318 B( 14-C , 15-C ) :   0.9412
B( 14-C , 19-O ) :   0.8574 B( 14-C , 20-H ) :   0.9317 B( 15-C , 16-C ) :   0.9406
B( 15-C , 21-H ) :   0.9269 B( 15-C , 22-H ) :   0.9361 B( 16-C , 17-O ) :   0.8592
B( 16-C , 23-H ) :   0.9318 B( 16-C , 24-H ) :   0.9268

FINAL SINGLE POINT ENERGY      -538.430215645877

DIPOLE MOMENT
-------------
                                X             Y             Z
Electronic contribution:     -1.05127      -1.00555      -0.47577
Nuclear contribution   :      1.00871       0.88561       0.70698
                        -----------------------------------------
Total Dipole Moment    :     -0.04255      -0.11993       0.23121
                        -----------------------------------------
Magnitude (a.u.)       :      0.26391
Magnitude (Debye)      :      0.67082

Rotational constants in cm-1:     0.080469     0.021742     0.020727
Rotational constants in MHz :  2412.397207   651.801602   621.383895

                             ****ORCA TERMINATED NORMALLY****
TOTAL RUN TIME: 0 days 0 hours 15 minutes 19 seconds 355 msec
