                         Program Version 4.2.0 -  RELEASE  -
|  1> # Test redundant internal optimization
|  2> #
|  3> ! RKS B3LYP  Opt TightSCF SmallPrint
|  4>
|  5> %basis
|  6>         Basis "6-31G"
|  7> end
|  8>
|  9> %geom
| 10> Constraints
| 11> { D 4  0  15  12  330.0   C } # D for Dihedral angle
| 12> { D 0  15  12  16  210.0   C } # D for Dihedral angle
| 13> { D 0  4  3  2   C } # D for Dihedral angle
| 14> { D 4  3  2  1   C } # D for Dihedral angle
| 15> { D 3  2  1  0   C } # D for Dihedral angle
| 16> { D 2  1  0  4   C } # D for Dihedral angle
| 17> { D 1  0  4  3   C } # D for Dihedral angle
| 18> { D 16  20  19  18   C } # D for Dihedral angle
| 19> { D 20  19  18  17   C } # D for Dihedral angle
| 20> { D 19  18  17  16   C } # D for Dihedral angle
| 21> { D 18  17  16  20   C } # D for Dihedral angle
| 22> { D 17  16  20  19   C } # D for Dihedral angle
| 23> { D 15  12  16  20   C } # D for Dihedral angle
| 24> end
| 25> end
| 26>
| 27>
| 28> #%pal
| 29> #nprocs 8
| 30> #end
| 31>
| 32> * xyz 0 1
| 33> C  -21.048   26.222   46.251
| 34> C  -20.361   27.558   45.944
| 35> C  -20.329   28.222   47.341
| 36> C  -20.110   27.022   48.296
| 37> O  -20.473   25.807   47.535
| 38> H  -20.833   25.428   45.533
| 39> H  -19.344   27.382   45.576
| 40> H  -20.898   28.157   45.201
| 41> H  -19.543   28.978   47.434
| 42> H  -21.289   28.710   47.548
| 43> H  -20.733   27.082   49.195
| 44> H  -19.064   26.913   48.597
| 45> C  -23.271   25.476   47.424
| 46> H  -22.699   24.544   47.517
| 47> H  -23.292   25.965   48.407
| 48> O  -22.586   26.394   46.375
| 49> C  -24.734   25.115   47.043
| 50> C  -24.784   24.277   45.761
| 51> C  -24.413   22.871   46.290
| 52> C  -25.063   22.842   47.696
| 53> O  -25.331   24.249   48.065
| 54> H  -25.330   26.029   47.010
| 55> O  -26.224   24.281   45.179
| 56> H  -24.098   24.634   44.985
| 57> H  -24.777   22.065   45.646
| 58> H  -23.323   22.774   46.366
| 59> H  -24.409   22.392   48.451
| 60> H  -26.022   22.319   47.702
| 61> H  -26.930   23.926   45.939
| 62> *
| 63>
| 64>                          ****END OF INPUT****
 Total Charge           Charge          ....    0
 Multiplicity           Mult            ....    1
 Number of Electrons    NEL             ....  102
FINAL SINGLE POINT ENERGY      -652.839306584288
FINAL SINGLE POINT ENERGY      -652.862169090571
FINAL SINGLE POINT ENERGY      -652.865745894595
FINAL SINGLE POINT ENERGY      -652.866362147926
FINAL SINGLE POINT ENERGY      -652.866457475635
FINAL SINGLE POINT ENERGY      -652.866472795318
                    ***********************HURRAY********************

CARTESIAN COORDINATES (ANGSTROEM)
---------------------------------
  C    -21.104356   26.131160   46.323960
  C    -20.548781   27.502690   45.943482
  C    -20.468323   28.200945   47.318080
  C    -20.090264   27.053866   48.280207
  O    -20.420560   25.793987   47.552501
  H    -20.882680   25.316277   45.627612
  H    -19.554022   27.378453   45.500534
  H    -21.193921   28.024098   45.233169
  H    -19.735292   29.013349   47.334499
  H    -21.447082   28.615746   47.576574
  H    -20.649216   27.073076   49.219176
  H    -19.019307   27.012425   48.497998
  C    -23.174447   25.425752   47.509656
  H    -22.603062   24.505027   47.672156
  H    -23.210757   25.967795   48.460328
  O    -22.543671   26.249332   46.480374
  C    -24.595145   25.115590   47.040559
  C    -24.685018   24.289480   45.749934
  C    -24.420063   22.855420   46.275664
  C    -25.090635   22.862506   47.672624
  O    -25.266338   24.286859   48.049563
  H    -25.168646   26.041926   46.948056
  O    -26.005316   24.406551   45.148761
  H    -23.983479   24.617975   44.985440
  H    -24.849771   22.110775   45.600894
  H    -23.343275   22.669947   46.351522
  H    -24.486302   22.364591   48.437496
  H    -26.085609   22.406857   47.664016
  H    -26.685661   24.341544   45.852164

 Multiplicity           Mult            ....    1
 Number of Electrons    NEL             ....  102
 Basis Dimension        Dim             ....  149

ORBITAL ENERGIES
----------------

  NO   OCC          E(Eh)            E(eV)
   0   2.0000     -19.149889      -521.0950
   1   2.0000     -19.143610      -520.9241
   2   2.0000     -19.141815      -520.8753
   3   2.0000     -19.132958      -520.6343
   4   2.0000     -10.282102      -279.7902
   5   2.0000     -10.233310      -278.4625
   6   2.0000     -10.231656      -278.4175
   7   2.0000     -10.229447      -278.3574
   8   2.0000     -10.229037      -278.3463
   9   2.0000     -10.225952      -278.2623
  10   2.0000     -10.189614      -277.2735
  11   2.0000     -10.187801      -277.2242
  12   2.0000     -10.185560      -277.1632
  13   2.0000      -1.057383       -28.7729
  14   2.0000      -1.033208       -28.1150
  15   2.0000      -1.001730       -27.2585
  16   2.0000      -0.994629       -27.0652
  17   2.0000      -0.793451       -21.5909
  18   2.0000      -0.776729       -21.1359
  19   2.0000      -0.766157       -20.8482
  20   2.0000      -0.732029       -19.9195
  21   2.0000      -0.671881       -18.2828
  22   2.0000      -0.603946       -16.4342
  23   2.0000      -0.600884       -16.3509
  24   2.0000      -0.590993       -16.0817
  25   2.0000      -0.577621       -15.7179
  26   2.0000      -0.520057       -14.1515
  27   2.0000      -0.517309       -14.0767
  28   2.0000      -0.497829       -13.5466
  29   2.0000      -0.491644       -13.3783
  30   2.0000      -0.471539       -12.8312
  31   2.0000      -0.456143       -12.4123
  32   2.0000      -0.447310       -12.1719
  33   2.0000      -0.436018       -11.8647
  34   2.0000      -0.420800       -11.4506
  35   2.0000      -0.412320       -11.2198
  36   2.0000      -0.404865       -11.0169
  37   2.0000      -0.390180       -10.6173
  38   2.0000      -0.375591       -10.2203
  39   2.0000      -0.365203        -9.9377
  40   2.0000      -0.362027        -9.8513
  41   2.0000      -0.353981        -9.6323
  42   2.0000      -0.351296        -9.5593
  43   2.0000      -0.340854        -9.2751
  44   2.0000      -0.325593        -8.8598
  45   2.0000      -0.306778        -8.3478
  46   2.0000      -0.301054        -8.1921
  47   2.0000      -0.268189        -7.2978
  48   2.0000      -0.265792        -7.2326
  49   2.0000      -0.258640        -7.0380
  50   2.0000      -0.242228        -6.5914
  51   0.0000       0.067941         1.8488
  52   0.0000       0.073000         1.9864
  53   0.0000       0.094749         2.5782
  54   0.0000       0.099998         2.7211
  55   0.0000       0.105139         2.8610

MULLIKEN ATOMIC CHARGES
-----------------------
   0 C :    0.295398
   1 C :   -0.259391
   2 C :   -0.301607
   3 C :   -0.013348
   4 O :   -0.513670
   5 H :    0.147639
   6 H :    0.144916
   7 H :    0.163505
   8 H :    0.145355
   9 H :    0.161161
  10 H :    0.148340
  11 H :    0.149191
  12 C :   -0.000731
  13 H :    0.149152
  14 H :    0.146599
  15 O :   -0.541790
  16 C :    0.057421
  17 C :    0.090493
  18 C :   -0.303180
  19 C :   -0.033055
  20 O :   -0.527618
  21 H :    0.165291
  22 O :   -0.602304
  23 H :    0.167196
  24 H :    0.161605
  25 H :    0.146959
  26 H :    0.147899
  27 H :    0.146639
  28 H :    0.361935
Sum of atomic charges:    0.0000000

LOEWDIN ATOMIC CHARGES
----------------------
   0 C :    0.177829
   1 C :   -0.215491
   2 C :   -0.216969
   3 C :   -0.030153
   4 O :   -0.325200
   5 H :    0.097439
   6 H :    0.114077
   7 H :    0.127368
   8 H :    0.116225
   9 H :    0.118605
  10 H :    0.105281
  11 H :    0.106153
  12 C :   -0.038001
  13 H :    0.105448
  14 H :    0.105694
  15 O :   -0.343197
  16 C :    0.015704
  17 C :    0.037992
  18 C :   -0.242978
  19 C :   -0.039190
  20 O :   -0.331183
  21 H :    0.117737
  22 O :   -0.414905
  23 H :    0.123308
  24 H :    0.126231
  25 H :    0.114092
  26 H :    0.104371
  27 H :    0.102578
  28 H :    0.281135

  Mayer bond orders larger than 0.100000
B(  0-C ,  1-C ) :   0.9464 B(  0-C ,  4-O ) :   0.9056 B(  0-C ,  5-H ) :   0.9231
B(  0-C , 15-O ) :   0.8440 B(  1-C ,  2-C ) :   0.9533 B(  1-C ,  6-H ) :   0.9373
B(  1-C ,  7-H ) :   0.9351 B(  2-C ,  3-C ) :   0.9559 B(  2-C ,  8-H ) :   0.9444
B(  2-C ,  9-H ) :   0.9447 B(  3-C ,  4-O ) :   0.8296 B(  3-C , 10-H ) :   0.9345
B(  3-C , 11-H ) :   0.9403 B( 12-C , 13-H ) :   0.9192 B( 12-C , 14-H ) :   0.9241
B( 12-C , 15-O ) :   0.8094 B( 12-C , 16-C ) :   0.9025 B( 16-C , 17-C ) :   0.9113
B( 16-C , 20-O ) :   0.8424 B( 16-C , 21-H ) :   0.9246 B( 17-C , 18-C ) :   0.9121
B( 17-C , 22-O ) :   0.8925 B( 17-C , 23-H ) :   0.9258 B( 18-C , 19-C ) :   0.9426
B( 18-C , 24-H ) :   0.9379 B( 18-C , 25-H ) :   0.9348 B( 19-C , 20-O ) :   0.8432
B( 19-C , 26-H ) :   0.9351 B( 19-C , 27-H ) :   0.9381 B( 22-O , 28-H ) :   0.7963

FINAL SINGLE POINT ENERGY      -652.866475241256

DIPOLE MOMENT
-------------
                                X             Y             Z
Electronic contribution:     -3.63651      -1.08409      -0.63336
Nuclear contribution   :      4.49102       1.19654       0.93492
                        -----------------------------------------
Total Dipole Moment    :      0.85452       0.11246       0.30156
                        -----------------------------------------
Magnitude (a.u.)       :      0.91312
Magnitude (Debye)      :      2.32096

Rotational constants in cm-1:     0.059725     0.012542     0.011780
Rotational constants in MHz :  1790.514575   375.995945   353.161426

                             ****ORCA TERMINATED NORMALLY****
TOTAL RUN TIME: 0 days 0 hours 52 minutes 10 seconds 670 msec
