                         Program Version 4.2.0 -  RELEASE  -
|  1> # Test redundant internal optimization
|  2> #
|  3> ! RKS B3LYP  Opt TightSCF SmallPrint
|  4>
|  5> %basis
|  6>         Basis "6-31G"
|  7> end
|  8>
|  9> %geom
| 10> Constraints
| 11> { D 4  0  15  12  180.0   C } # D for Dihedral angle
| 12> { D 0  15  12  16  120.0   C } # D for Dihedral angle
| 13> { D 0  4  3  2   C } # D for Dihedral angle
| 14> { D 4  3  2  1   C } # D for Dihedral angle
| 15> { D 3  2  1  0   C } # D for Dihedral angle
| 16> { D 2  1  0  4   C } # D for Dihedral angle
| 17> { D 1  0  4  3   C } # D for Dihedral angle
| 18> { D 16  20  19  18   C } # D for Dihedral angle
| 19> { D 20  19  18  17   C } # D for Dihedral angle
| 20> { D 19  18  17  16   C } # D for Dihedral angle
| 21> { D 18  17  16  20   C } # D for Dihedral angle
| 22> { D 17  16  20  19   C } # D for Dihedral angle
| 23> { D 15  12  16  20   C } # D for Dihedral angle
| 24> end
| 25> end
| 26>
| 27>
| 28> #%pal
| 29> #nprocs 8
| 30> #end
| 31>
| 32> * xyz 0 1
| 33> C  -21.048   26.222   46.251
| 34> C  -20.361   27.558   45.944
| 35> C  -20.329   28.222   47.341
| 36> C  -20.110   27.022   48.296
| 37> O  -20.473   25.807   47.535
| 38> H  -20.833   25.428   45.533
| 39> H  -19.344   27.382   45.576
| 40> H  -20.898   28.157   45.201
| 41> H  -19.543   28.978   47.434
| 42> H  -21.289   28.710   47.548
| 43> H  -20.733   27.082   49.195
| 44> H  -19.064   26.913   48.597
| 45> C  -23.309   26.834   45.072
| 46> H  -23.809   27.795   45.242
| 47> H  -22.585   26.963   44.257
| 48> O  -22.586   26.394   46.375
| 49> C  -24.374   25.806   44.600
| 50> C  -24.983   26.214   43.254
| 51> C  -23.885   25.763   42.263
| 52> C  -23.330   24.472   42.917
| 53> O  -23.749   24.506   44.334
| 54> H  -25.103   25.653   45.399
| 55> O  -26.301   25.430   43.006
| 56> H  -25.201   27.286   43.188
| 57> H  -24.270   25.586   41.253
| 58> H  -23.102   26.528   42.194
| 59> H  -22.236   24.414   42.868
| 60> H  -23.753   23.565   42.476
| 61> H  -26.107   24.354   43.068
| 62> *
| 63>
| 64>                          ****END OF INPUT****
 Total Charge           Charge          ....    0
 Multiplicity           Mult            ....    1
 Number of Electrons    NEL             ....  102
FINAL SINGLE POINT ENERGY      -652.829248822809
FINAL SINGLE POINT ENERGY      -652.852149034207
FINAL SINGLE POINT ENERGY      -652.856034381801
FINAL SINGLE POINT ENERGY      -652.856737233000
FINAL SINGLE POINT ENERGY      -652.856826870835
FINAL SINGLE POINT ENERGY      -652.856837052353
                    ***********************HURRAY********************

CARTESIAN COORDINATES (ANGSTROEM)
---------------------------------
  C    -21.054472   26.253541   46.147194
  C    -20.314161   27.575817   45.955080
  C    -20.402144   28.204243   47.369129
  C    -20.304426   26.973073   48.293293
  O    -20.625355   25.802218   47.436372
  H    -20.822755   25.465826   45.424796
  H    -19.272232   27.365697   45.685531
  H    -20.743242   28.214936   45.178156
  H    -19.606431   28.931800   47.554518
  H    -21.366789   28.705412   47.493434
  H    -21.012572   26.999960   49.124976
  H    -19.294209   26.809293   48.679916
  C    -23.171967   26.894091   45.014061
  H    -23.677116   27.843010   45.237994
  H    -22.452161   27.074075   44.203426
  O    -22.501246   26.434960   46.217406
  C    -24.200358   25.846155   44.591635
  C    -24.968815   26.170831   43.301843
  C    -23.967561   25.704909   42.213252
  C    -23.299223   24.465161   42.858198
  O    -23.562042   24.553760   44.315817
  H    -24.882459   25.674181   45.429198
  O    -26.215852   25.426978   43.239352
  H    -25.252904   27.220215   43.205807
  H    -24.490500   25.472938   41.282345
  H    -23.234284   26.493213   42.007458
  H    -22.218328   24.429838   42.690288
  H    -23.735530   23.524904   42.508243
  H    -26.058866   24.512965   43.558283

 Multiplicity           Mult            ....    1
 Number of Electrons    NEL             ....  102
 Basis Dimension        Dim             ....  149

ORBITAL ENERGIES
----------------

  NO   OCC          E(Eh)            E(eV)
   0   2.0000     -19.143911      -520.9323
   1   2.0000     -19.139581      -520.8145
   2   2.0000     -19.137856      -520.7675
   3   2.0000     -19.135912      -520.7146
   4   2.0000     -10.276722      -279.6438
   5   2.0000     -10.245218      -278.7866
   6   2.0000     -10.235384      -278.5190
   7   2.0000     -10.233698      -278.4731
   8   2.0000     -10.232927      -278.4521
   9   2.0000     -10.223293      -278.1900
  10   2.0000     -10.192849      -277.3615
  11   2.0000     -10.188250      -277.2364
  12   2.0000     -10.187108      -277.2053
  13   2.0000      -1.051559       -28.6144
  14   2.0000      -1.037390       -28.2288
  15   2.0000      -1.007991       -27.4288
  16   2.0000      -0.990311       -26.9477
  17   2.0000      -0.787942       -21.4410
  18   2.0000      -0.784697       -21.3527
  19   2.0000      -0.769188       -20.9307
  20   2.0000      -0.731130       -19.8951
  21   2.0000      -0.678108       -18.4523
  22   2.0000      -0.606238       -16.4966
  23   2.0000      -0.602563       -16.3966
  24   2.0000      -0.593057       -16.1379
  25   2.0000      -0.580055       -15.7841
  26   2.0000      -0.528381       -14.3780
  27   2.0000      -0.506617       -13.7858
  28   2.0000      -0.499822       -13.6009
  29   2.0000      -0.491171       -13.3654
  30   2.0000      -0.478162       -13.0115
  31   2.0000      -0.460021       -12.5178
  32   2.0000      -0.449977       -12.2445
  33   2.0000      -0.449404       -12.2289
  34   2.0000      -0.422501       -11.4968
  35   2.0000      -0.411553       -11.1989
  36   2.0000      -0.399410       -10.8685
  37   2.0000      -0.396604       -10.7921
  38   2.0000      -0.375794       -10.2259
  39   2.0000      -0.373925       -10.1750
  40   2.0000      -0.367180        -9.9915
  41   2.0000      -0.355942        -9.6857
  42   2.0000      -0.351501        -9.5648
  43   2.0000      -0.334100        -9.0913
  44   2.0000      -0.311538        -8.4774
  45   2.0000      -0.308563        -8.3964
  46   2.0000      -0.300065        -8.1652
  47   2.0000      -0.272985        -7.4283
  48   2.0000      -0.261710        -7.1215
  49   2.0000      -0.255016        -6.9393
  50   2.0000      -0.238444        -6.4884
  51   0.0000       0.060840         1.6556
  52   0.0000       0.081248         2.2109
  53   0.0000       0.085176         2.3178
  54   0.0000       0.099939         2.7195
  55   0.0000       0.104972         2.8564

MULLIKEN ATOMIC CHARGES
-----------------------
   0 C :    0.304620
   1 C :   -0.281076
   2 C :   -0.298645
   3 C :    0.000032
   4 O :   -0.499051
   5 H :    0.151639
   6 H :    0.146957
   7 H :    0.139218
   8 H :    0.141922
   9 H :    0.157507
  10 H :    0.155578
  11 H :    0.141143
  12 C :   -0.017368
  13 H :    0.138849
  14 H :    0.120245
  15 O :   -0.500924
  16 C :    0.071875
  17 C :    0.077167
  18 C :   -0.297607
  19 C :   -0.027582
  20 O :   -0.511029
  21 H :    0.174344
  22 O :   -0.601217
  23 H :    0.150210
  24 H :    0.165198
  25 H :    0.140256
  26 H :    0.143595
  27 H :    0.147072
  28 H :    0.367073
Sum of atomic charges:    0.0000000

LOEWDIN ATOMIC CHARGES
----------------------
   0 C :    0.183846
   1 C :   -0.234947
   2 C :   -0.216943
   3 C :   -0.024984
   4 O :   -0.298915
   5 H :    0.102568
   6 H :    0.115276
   7 H :    0.111132
   8 H :    0.114119
   9 H :    0.116446
  10 H :    0.110147
  11 H :    0.102192
  12 C :   -0.044870
  13 H :    0.104436
  14 H :    0.091884
  15 O :   -0.328433
  16 C :    0.012914
  17 C :    0.034025
  18 C :   -0.241990
  19 C :   -0.038780
  20 O :   -0.322235
  21 H :    0.123337
  22 O :   -0.413531
  23 H :    0.114608
  24 H :    0.127840
  25 H :    0.110470
  26 H :    0.102270
  27 H :    0.103510
  28 H :    0.284609

  Mayer bond orders larger than 0.100000
B(  0-C ,  1-C ) :   0.9268 B(  0-C ,  4-O ) :   0.9403 B(  0-C ,  5-H ) :   0.9185
B(  0-C , 15-O ) :   0.8295 B(  1-C ,  2-C ) :   0.9504 B(  1-C ,  6-H ) :   0.9339
B(  1-C ,  7-H ) :   0.9323 B(  2-C ,  3-C ) :   0.9562 B(  2-C ,  8-H ) :   0.9451
B(  2-C ,  9-H ) :   0.9452 B(  3-C ,  4-O ) :   0.8363 B(  3-C , 10-H ) :   0.9342
B(  3-C , 11-H ) :   0.9398 B( 12-C , 13-H ) :   0.9213 B( 12-C , 14-H ) :   0.9176
B( 12-C , 15-O ) :   0.8583 B( 12-C , 16-C ) :   0.8898 B( 16-C , 17-C ) :   0.8958
B( 16-C , 20-O ) :   0.8622 B( 16-C , 21-H ) :   0.9231 B( 17-C , 18-C ) :   0.9100
B( 17-C , 22-O ) :   0.8929 B( 17-C , 23-H ) :   0.9332 B( 18-C , 19-C ) :   0.9404
B( 18-C , 24-H ) :   0.9371 B( 18-C , 25-H ) :   0.9341 B( 19-C , 20-O ) :   0.8528
B( 19-C , 26-H ) :   0.9344 B( 19-C , 27-H ) :   0.9384 B( 22-O , 28-H ) :   0.7930

FINAL SINGLE POINT ENERGY      -652.856839480232

DIPOLE MOMENT
-------------
                                X             Y             Z
Electronic contribution:     -3.66495      -4.67074       1.95102
Nuclear contribution   :      4.50373       5.81815      -2.87667
                        -----------------------------------------
Total Dipole Moment    :      0.83878       1.14740      -0.92565
                        -----------------------------------------
Magnitude (a.u.)       :      1.69615
Magnitude (Debye)      :      4.31127

Rotational constants in cm-1:     0.068700     0.011596     0.011417
Rotational constants in MHz :  2059.568780   347.640495   342.276479

                             ****ORCA TERMINATED NORMALLY****
TOTAL RUN TIME: 0 days 0 hours 22 minutes 29 seconds 470 msec
