                         Program Version 4.2.0 -  RELEASE  -
|  1> # Test redundant internal optimization
|  2> #
|  3> ! RKS B3LYP  Opt TightSCF SmallPrint
|  4>
|  5> %basis
|  6>         Basis "6-31G"
|  7> end
|  8>
|  9> %geom
| 10> Constraints
| 11> { D 4  0  15  12  330.0   C } # D for Dihedral angle
| 12> { D 0  15  12  16  315.0   C } # D for Dihedral angle
| 13> { D 0  4  3  2   C } # D for Dihedral angle
| 14> { D 4  3  2  1   C } # D for Dihedral angle
| 15> { D 3  2  1  0   C } # D for Dihedral angle
| 16> { D 2  1  0  4   C } # D for Dihedral angle
| 17> { D 1  0  4  3   C } # D for Dihedral angle
| 18> { D 16  20  19  18   C } # D for Dihedral angle
| 19> { D 20  19  18  17   C } # D for Dihedral angle
| 20> { D 19  18  17  16   C } # D for Dihedral angle
| 21> { D 18  17  16  20   C } # D for Dihedral angle
| 22> { D 17  16  20  19   C } # D for Dihedral angle
| 23> { D 15  12  16  20   C } # D for Dihedral angle
| 24> end
| 25> end
| 26>
| 27>
| 28> #%pal
| 29> #nprocs 8
| 30> #end
| 31>
| 32> * xyz 0 1
| 33> C  -21.048   26.222   46.251
| 34> C  -20.361   27.558   45.944
| 35> C  -20.329   28.222   47.341
| 36> C  -20.110   27.022   48.296
| 37> O  -20.473   25.807   47.535
| 38> H  -20.833   25.428   45.533
| 39> H  -19.344   27.382   45.576
| 40> H  -20.898   28.157   45.201
| 41> H  -19.543   28.978   47.434
| 42> H  -21.289   28.710   47.548
| 43> H  -20.733   27.082   49.195
| 44> H  -19.064   26.913   48.597
| 45> C  -23.271   25.476   47.424
| 46> H  -23.065   25.860   48.431
| 47> H  -24.358   25.468   47.276
| 48> O  -22.586   26.394   46.375
| 49> C  -22.773   24.005   47.351
| 50> C  -22.946   23.428   45.941
| 51> C  -21.731   24.038   45.202
| 52> C  -20.633   24.067   46.294
| 53> O  -21.328   23.941   47.593
| 54> H  -23.256   23.425   48.139
| 55> H  -22.872   22.336   45.971
| 56> O  -24.302   23.809   45.288
| 57> H  -21.432   23.456   44.324
| 58> H  -21.968   25.054   44.864
| 59> H  -20.056   24.998   46.284
| 60> H  -19.943   23.222   46.214
| 61> H  -24.398   24.900   45.248
| 62> *
| 63>
| 64>                          ****END OF INPUT****
 Total Charge           Charge          ....    0
 Multiplicity           Mult            ....    1
 Number of Electrons    NEL             ....  102
FINAL SINGLE POINT ENERGY      -652.609374777112
FINAL SINGLE POINT ENERGY      -652.812046827738
FINAL SINGLE POINT ENERGY      -652.837487427320
FINAL SINGLE POINT ENERGY      -652.845457744664
FINAL SINGLE POINT ENERGY      -652.847702189543
FINAL SINGLE POINT ENERGY      -652.848839839808
FINAL SINGLE POINT ENERGY      -652.849534343687
FINAL SINGLE POINT ENERGY      -652.849843044635
FINAL SINGLE POINT ENERGY      -652.849931797544
FINAL SINGLE POINT ENERGY      -652.849947993585
                    ***********************HURRAY********************

CARTESIAN COORDINATES (ANGSTROEM)
---------------------------------
  C    -20.946026   26.631650   46.212278
  C    -20.592419   28.114549   46.105071
  C    -20.458569   28.517410   47.592059
  C    -19.857638   27.252490   48.245001
  O    -20.112055   26.145013   47.282497
  H    -20.689880   26.030794   45.337345
  H    -19.636222   28.218495   45.578802
  H    -21.357262   28.682861   45.572161
  H    -19.825395   29.398234   47.733625
  H    -21.448336   28.734830   48.004128
  H    -20.317903   26.994946   49.201977
  H    -18.772428   27.310897   48.370911
  C    -23.057733   25.567423   47.296959
  H    -22.926867   25.881955   48.341201
  H    -24.110580   25.701440   47.032601
  O    -22.369464   26.557158   46.462609
  C    -22.777744   24.050927   47.263459
  C    -23.115550   23.350378   45.937138
  C    -21.756065   23.426244   45.175175
  C    -20.723810   23.271430   46.315305
  O    -21.446949   23.573760   47.578572
  H    -23.425405   23.667385   48.063587
  H    -23.394877   22.311735   46.125007
  O    -24.238663   23.914146   45.219737
  H    -21.665548   22.648153   44.411853
  H    -21.682848   24.399153   44.677059
  H    -19.874676   23.953531   46.240625
  H    -20.359746   22.243426   46.401284
  H    -24.002342   24.807586   44.891974

 Multiplicity           Mult            ....    1
 Number of Electrons    NEL             ....  102
 Basis Dimension        Dim             ....  149

ORBITAL ENERGIES
----------------

  NO   OCC          E(Eh)            E(eV)
   0   2.0000     -19.144849      -520.9578
   1   2.0000     -19.142533      -520.8948
   2   2.0000     -19.140406      -520.8369
   3   2.0000     -19.130859      -520.5771
   4   2.0000     -10.282107      -279.7904
   5   2.0000     -10.236164      -278.5402
   6   2.0000     -10.230400      -278.3833
   7   2.0000     -10.229542      -278.3600
   8   2.0000     -10.228027      -278.3188
   9   2.0000     -10.218651      -278.0636
  10   2.0000     -10.187673      -277.2207
  11   2.0000     -10.186159      -277.1795
  12   2.0000     -10.186000      -277.1752
  13   2.0000      -1.052850       -28.6495
  14   2.0000      -1.026159       -27.9232
  15   2.0000      -1.008338       -27.4383
  16   2.0000      -0.991624       -26.9835
  17   2.0000      -0.790082       -21.4992
  18   2.0000      -0.772315       -21.0158
  19   2.0000      -0.767828       -20.8937
  20   2.0000      -0.733165       -19.9504
  21   2.0000      -0.678319       -18.4580
  22   2.0000      -0.607332       -16.5263
  23   2.0000      -0.601615       -16.3708
  24   2.0000      -0.599835       -16.3223
  25   2.0000      -0.557819       -15.1790
  26   2.0000      -0.527568       -14.3558
  27   2.0000      -0.506706       -13.7882
  28   2.0000      -0.499310       -13.5869
  29   2.0000      -0.480504       -13.0752
  30   2.0000      -0.468648       -12.7526
  31   2.0000      -0.459857       -12.5134
  32   2.0000      -0.439159       -11.9501
  33   2.0000      -0.429181       -11.6786
  34   2.0000      -0.417505       -11.3609
  35   2.0000      -0.411551       -11.1989
  36   2.0000      -0.408520       -11.1164
  37   2.0000      -0.392958       -10.6929
  38   2.0000      -0.377910       -10.2835
  39   2.0000      -0.372320       -10.1313
  40   2.0000      -0.358446        -9.7538
  41   2.0000      -0.354518        -9.6469
  42   2.0000      -0.344339        -9.3699
  43   2.0000      -0.332333        -9.0433
  44   2.0000      -0.320885        -8.7317
  45   2.0000      -0.306758        -8.3473
  46   2.0000      -0.296190        -8.0597
  47   2.0000      -0.269680        -7.3384
  48   2.0000      -0.262048        -7.1307
  49   2.0000      -0.254880        -6.9356
  50   2.0000      -0.229241        -6.2380
  51   0.0000       0.063207         1.7200
  52   0.0000       0.084249         2.2925
  53   0.0000       0.089303         2.4301
  54   0.0000       0.096515         2.6263
  55   0.0000       0.103438         2.8147

MULLIKEN ATOMIC CHARGES
-----------------------
   0 C :    0.310780
   1 C :   -0.254890
   2 C :   -0.301878
   3 C :   -0.011152
   4 O :   -0.503588
   5 H :    0.134529
   6 H :    0.142080
   7 H :    0.157470
   8 H :    0.142377
   9 H :    0.159720
  10 H :    0.152020
  11 H :    0.148846
  12 C :   -0.019901
  13 H :    0.141624
  14 H :    0.158674
  15 O :   -0.560772
  16 C :    0.091626
  17 C :    0.083780
  18 C :   -0.325250
  19 C :   -0.010472
  20 O :   -0.508204
  21 H :    0.149366
  22 H :    0.165137
  23 O :   -0.605689
  24 H :    0.153835
  25 H :    0.138844
  26 H :    0.167233
  27 H :    0.139760
  28 H :    0.364097
Sum of atomic charges:   -0.0000000

LOEWDIN ATOMIC CHARGES
----------------------
   0 C :    0.178103
   1 C :   -0.214265
   2 C :   -0.217017
   3 C :   -0.028867
   4 O :   -0.312812
   5 H :    0.089907
   6 H :    0.111767
   7 H :    0.124575
   8 H :    0.114851
   9 H :    0.117670
  10 H :    0.107399
  11 H :    0.105573
  12 C :   -0.047930
  13 H :    0.102150
  14 H :    0.120092
  15 O :   -0.352402
  16 C :    0.006130
  17 C :    0.032049
  18 C :   -0.242113
  19 C :   -0.031464
  20 O :   -0.311278
  21 H :    0.117090
  22 H :    0.117429
  23 O :   -0.410224
  24 H :    0.120354
  25 H :    0.105778
  26 H :    0.113583
  27 H :    0.102057
  28 H :    0.281815

  Mayer bond orders larger than 0.100000
B(  0-C ,  1-C ) :   0.9406 B(  0-C ,  4-O ) :   0.9137 B(  0-C ,  5-H ) :   0.9103
B(  0-C , 15-O ) :   0.8390 B(  1-C ,  2-C ) :   0.9554 B(  1-C ,  6-H ) :   0.9386
B(  1-C ,  7-H ) :   0.9363 B(  2-C ,  3-C ) :   0.9546 B(  2-C ,  8-H ) :   0.9453
B(  2-C ,  9-H ) :   0.9443 B(  3-C ,  4-O ) :   0.8289 B(  3-C , 10-H ) :   0.9337
B(  3-C , 11-H ) :   0.9397 B( 12-C , 13-H ) :   0.9297 B( 12-C , 14-H ) :   0.9177
B( 12-C , 15-O ) :   0.8359 B( 12-C , 16-C ) :   0.8920 B( 16-C , 17-C ) :   0.8811
B( 16-C , 20-O ) :   0.8874 B( 16-C , 21-H ) :   0.9162 B( 17-C , 18-C ) :   0.9259
B( 17-C , 22-H ) :   0.9351 B( 17-C , 23-O ) :   0.9004 B( 18-C , 19-C ) :   0.9438
B( 18-C , 24-H ) :   0.9417 B( 18-C , 25-H ) :   0.9320 B( 19-C , 20-O ) :   0.8358
B( 19-C , 26-H ) :   0.9144 B( 19-C , 27-H ) :   0.9388 B( 23-O , 28-H ) :   0.7910

FINAL SINGLE POINT ENERGY      -652.849950061400

DIPOLE MOMENT
-------------
                                X             Y             Z
Electronic contribution:     -2.38353      -3.36343       0.33084
Nuclear contribution   :      2.97476       4.19524      -0.56617
                        -----------------------------------------
Total Dipole Moment    :      0.59123       0.83181      -0.23533
                        -----------------------------------------
Magnitude (a.u.)       :      1.04730
Magnitude (Debye)      :      2.66203

Rotational constants in cm-1:     0.049153     0.017796     0.016066
Rotational constants in MHz :  1473.570430   533.520288   481.635009

                             ****ORCA TERMINATED NORMALLY****
TOTAL RUN TIME: 0 days 0 hours 33 minutes 38 seconds 726 msec
