                         Program Version 4.2.0 -  RELEASE  -
|  1> # Test redundant internal optimization
|  2> #
|  3> ! RKS B3LYP  Opt TightSCF SmallPrint
|  4>
|  5> %basis
|  6>         Basis "6-31G"
|  7> end
|  8>
|  9> %geom
| 10> Constraints
| 11> { D 4  0  15  12  30.0   C } # D for Dihedral angle
| 12> { D 0  15  12  16  255.0   C } # D for Dihedral angle
| 13> { D 0  4  3  2   C } # D for Dihedral angle
| 14> { D 4  3  2  1   C } # D for Dihedral angle
| 15> { D 3  2  1  0   C } # D for Dihedral angle
| 16> { D 2  1  0  4   C } # D for Dihedral angle
| 17> { D 1  0  4  3   C } # D for Dihedral angle
| 18> { D 16  20  19  18   C } # D for Dihedral angle
| 19> { D 20  19  18  17   C } # D for Dihedral angle
| 20> { D 19  18  17  16   C } # D for Dihedral angle
| 21> { D 18  17  16  20   C } # D for Dihedral angle
| 22> { D 17  16  20  19   C } # D for Dihedral angle
| 23> { D 15  12  16  20   C } # D for Dihedral angle
| 24> end
| 25> end
| 26>
| 27>
| 28> #%pal
| 29> #nprocs 8
| 30> #end
| 31>
| 32> * xyz 0 1
| 33> C  -21.048   26.222   46.251
| 34> C  -20.361   27.558   45.944
| 35> C  -20.329   28.222   47.341
| 36> C  -20.110   27.022   48.296
| 37> O  -20.473   25.807   47.535
| 38> H  -20.833   25.428   45.533
| 39> H  -19.344   27.382   45.576
| 40> H  -20.898   28.157   45.201
| 41> H  -19.543   28.978   47.434
| 42> H  -21.289   28.710   47.548
| 43> H  -20.733   27.082   49.195
| 44> H  -19.064   26.913   48.597
| 45> C  -23.091   26.824   47.779
| 46> H  -22.245   27.198   48.370
| 47> H  -23.831   27.630   47.691
| 48> O  -22.586   26.394   46.375
| 49> C  -23.755   25.657   48.562
| 50> C  -24.895   25.023   47.755
| 51> C  -24.115   24.121   46.768
| 52> C  -22.909   23.637   47.611
| 53> O  -22.800   24.563   48.759
| 54> H  -24.046   26.011   49.553
| 55> H  -25.529   24.418   48.413
| 56> O  -25.790   26.069   47.037
| 57> H  -24.717   23.291   46.385
| 58> H  -23.773   24.711   45.909
| 59> H  -21.970   23.650   47.048
| 60> H  -23.062   22.634   48.020
| 61> H  -25.175   26.686   46.373
| 62> *
| 63>
| 64>                          ****END OF INPUT****
 Total Charge           Charge          ....    0
 Multiplicity           Mult            ....    1
 Number of Electrons    NEL             ....  102
FINAL SINGLE POINT ENERGY      -652.818276607597
FINAL SINGLE POINT ENERGY      -652.844459424269
FINAL SINGLE POINT ENERGY      -652.853644917809
FINAL SINGLE POINT ENERGY      -652.856008107472
FINAL SINGLE POINT ENERGY      -652.856393616485
FINAL SINGLE POINT ENERGY      -652.856460522079
FINAL SINGLE POINT ENERGY      -652.856466537476
                    ***********************HURRAY********************

CARTESIAN COORDINATES (ANGSTROEM)
---------------------------------
  C    -21.089716   26.378161   46.357689
  C    -20.394546   27.690294   45.982957
  C    -20.113768   28.317355   47.375377
  C    -19.809962   27.078304   48.251239
  O    -20.356971   25.913494   47.504475
  H    -21.002172   25.603517   45.593732
  H    -19.456608   27.461735   45.463820
  H    -21.013858   28.318539   45.338872
  H    -19.276422   29.021658   47.356540
  H    -20.994616   28.857976   47.737125
  H    -20.275411   27.109838   49.239894
  H    -18.737165   26.898350   48.367024
  C    -23.154196   26.833545   47.811746
  H    -22.424227   27.246601   48.512685
  H    -23.912159   27.597104   47.605861
  O    -22.528394   26.514101   46.532543
  C    -23.836676   25.638331   48.483935
  C    -24.961665   24.999288   47.650562
  C    -24.169531   24.000440   46.749974
  C    -23.037997   23.528394   47.689997
  O    -22.954884   24.525245   48.786202
  H    -24.219718   26.001602   49.445782
  H    -25.658749   24.472248   48.305565
  O    -25.778698   25.946195   46.918047
  H    -24.796705   23.177283   46.396021
  H    -23.766279   24.544611   45.892508
  H    -22.063101   23.473730   47.199151
  H    -23.259649   22.563543   48.157144
  H    -25.270159   26.286518   46.152535

 Multiplicity           Mult            ....    1
 Number of Electrons    NEL             ....  102
 Basis Dimension        Dim             ....  149

ORBITAL ENERGIES
----------------

  NO   OCC          E(Eh)            E(eV)
   0   2.0000     -19.149079      -521.0729
   1   2.0000     -19.144410      -520.9459
   2   2.0000     -19.135202      -520.6953
   3   2.0000     -19.126810      -520.4670
   4   2.0000     -10.283873      -279.8384
   5   2.0000     -10.233127      -278.4575
   6   2.0000     -10.231153      -278.4038
   7   2.0000     -10.229946      -278.3710
   8   2.0000     -10.223573      -278.1976
   9   2.0000     -10.215608      -277.9808
  10   2.0000     -10.195396      -277.4308
  11   2.0000     -10.189948      -277.2826
  12   2.0000     -10.175196      -276.8812
  13   2.0000      -1.055705       -28.7272
  14   2.0000      -1.022196       -27.8154
  15   2.0000      -1.004479       -27.3333
  16   2.0000      -0.994598       -27.0644
  17   2.0000      -0.791875       -21.5480
  18   2.0000      -0.771950       -21.0058
  19   2.0000      -0.762389       -20.7456
  20   2.0000      -0.733279       -19.9535
  21   2.0000      -0.676324       -18.4037
  22   2.0000      -0.606697       -16.5091
  23   2.0000      -0.602283       -16.3890
  24   2.0000      -0.596565       -16.2334
  25   2.0000      -0.558106       -15.1868
  26   2.0000      -0.527633       -14.3576
  27   2.0000      -0.507288       -13.8040
  28   2.0000      -0.495341       -13.4789
  29   2.0000      -0.487399       -13.2628
  30   2.0000      -0.470915       -12.8143
  31   2.0000      -0.459080       -12.4922
  32   2.0000      -0.434907       -11.8344
  33   2.0000      -0.429191       -11.6789
  34   2.0000      -0.422340       -11.4925
  35   2.0000      -0.413218       -11.2442
  36   2.0000      -0.402185       -10.9440
  37   2.0000      -0.390452       -10.6247
  38   2.0000      -0.381203       -10.3731
  39   2.0000      -0.368977       -10.0404
  40   2.0000      -0.362755        -9.8711
  41   2.0000      -0.355465        -9.6727
  42   2.0000      -0.344507        -9.3745
  43   2.0000      -0.327410        -8.9093
  44   2.0000      -0.318218        -8.6592
  45   2.0000      -0.310921        -8.4606
  46   2.0000      -0.300233        -8.1697
  47   2.0000      -0.264525        -7.1981
  48   2.0000      -0.261559        -7.1174
  49   2.0000      -0.255844        -6.9619
  50   2.0000      -0.227070        -6.1789
  51   0.0000       0.064605         1.7580
  52   0.0000       0.086325         2.3490
  53   0.0000       0.093156         2.5349
  54   0.0000       0.096158         2.6166
  55   0.0000       0.107257         2.9186

MULLIKEN ATOMIC CHARGES
-----------------------
   0 C :    0.308796
   1 C :   -0.261586
   2 C :   -0.315664
   3 C :   -0.018397
   4 O :   -0.497779
   5 H :    0.157072
   6 H :    0.148976
   7 H :    0.153819
   8 H :    0.149813
   9 H :    0.150796
  10 H :    0.155703
  11 H :    0.151552
  12 C :   -0.030730
  13 H :    0.145225
  14 H :    0.150202
  15 O :   -0.554474
  16 C :    0.106750
  17 C :    0.087386
  18 C :   -0.313949
  19 C :   -0.001877
  20 O :   -0.514445
  21 H :    0.139189
  22 H :    0.157988
  23 O :   -0.610269
  24 H :    0.141679
  25 H :    0.159366
  26 H :    0.152075
  27 H :    0.137038
  28 H :    0.365745
Sum of atomic charges:   -0.0000000

LOEWDIN ATOMIC CHARGES
----------------------
   0 C :    0.180862
   1 C :   -0.224790
   2 C :   -0.223233
   3 C :   -0.033491
   4 O :   -0.307585
   5 H :    0.107110
   6 H :    0.116501
   7 H :    0.121672
   8 H :    0.118274
   9 H :    0.110923
  10 H :    0.106578
  11 H :    0.107385
  12 C :   -0.047446
  13 H :    0.106119
  14 H :    0.111242
  15 O :   -0.348336
  16 C :    0.013009
  17 C :    0.036388
  18 C :   -0.242988
  19 C :   -0.024431
  20 O :   -0.316910
  21 H :    0.110592
  22 H :    0.114322
  23 O :   -0.414023
  24 H :    0.113908
  25 H :    0.118730
  26 H :    0.107223
  27 H :    0.099258
  28 H :    0.283138

  Mayer bond orders larger than 0.100000
B(  0-C ,  1-C ) :   0.9239 B(  0-C ,  4-O ) :   0.9225 B(  0-C ,  5-H ) :   0.9343
B(  0-C , 15-O ) :   0.8455 B(  1-C ,  2-C ) :   0.9541 B(  1-C ,  6-H ) :   0.9346
B(  1-C ,  7-H ) :   0.9374 B(  2-C ,  3-C ) :   0.9485 B(  2-C ,  8-H ) :   0.9445
B(  2-C ,  9-H ) :   0.9434 B(  3-C ,  4-O ) :   0.8333 B(  3-C , 10-H ) :   0.9283
B(  3-C , 11-H ) :   0.9385 B( 12-C , 13-H ) :   0.9187 B( 12-C , 14-H ) :   0.9184
B( 12-C , 15-O ) :   0.8359 B( 12-C , 16-C ) :   0.8893 B( 16-C , 17-C ) :   0.8887
B( 16-C , 20-O ) :   0.8897 B( 16-C , 21-H ) :   0.9236 B( 17-C , 18-C ) :   0.9319
B( 17-C , 22-H ) :   0.9377 B( 17-C , 23-O ) :   0.8975 B( 18-C , 19-C ) :   0.9467
B( 18-C , 24-H ) :   0.9414 B( 18-C , 25-H ) :   0.9283 B( 19-C , 20-O ) :   0.8354
B( 19-C , 26-H ) :   0.9287 B( 19-C , 27-H ) :   0.9386 B( 23-O , 28-H ) :   0.7924

FINAL SINGLE POINT ENERGY      -652.856465643296

DIPOLE MOMENT
-------------
                                X             Y             Z
Electronic contribution:     -2.68401      -2.43207       0.86349
Nuclear contribution   :      3.51298       3.20700      -1.34440
                        -----------------------------------------
Total Dipole Moment    :      0.82897       0.77493      -0.48091
                        -----------------------------------------
Magnitude (a.u.)       :      1.23247
Magnitude (Debye)      :      3.13269

Rotational constants in cm-1:     0.050322     0.017184     0.015669
Rotational constants in MHz :  1508.616524   515.162735   469.753544

                             ****ORCA TERMINATED NORMALLY****
TOTAL RUN TIME: 0 days 0 hours 39 minutes 39 seconds 790 msec
