                         Program Version 4.2.0 -  RELEASE  -
|  1> # Test redundant internal optimization
|  2> #
|  3> ! RKS B3LYP  Opt TightSCF SmallPrint
|  4>
|  5> %basis
|  6>         Basis "6-31G"
|  7> end
|  8>
|  9> %geom
| 10> Constraints
| 11> { D 4  0  15  12  150.0   C } # D for Dihedral angle
| 12> { D 0  15  12  16  225.0   C } # D for Dihedral angle
| 13> { D 0  4  3  2   C } # D for Dihedral angle
| 14> { D 4  3  2  1   C } # D for Dihedral angle
| 15> { D 3  2  1  0   C } # D for Dihedral angle
| 16> { D 2  1  0  4   C } # D for Dihedral angle
| 17> { D 1  0  4  3   C } # D for Dihedral angle
| 18> { D 16  20  19  18   C } # D for Dihedral angle
| 19> { D 20  19  18  17   C } # D for Dihedral angle
| 20> { D 19  18  17  16   C } # D for Dihedral angle
| 21> { D 18  17  16  20   C } # D for Dihedral angle
| 22> { D 17  16  20  19   C } # D for Dihedral angle
| 23> { D 15  12  16  20   C } # D for Dihedral angle
| 24> end
| 25> end
| 26>
| 27>
| 28> #%pal
| 29> #nprocs 8
| 30> #end
| 31>
| 32> * xyz 0 1
| 33> C  -21.048   26.222   46.251
| 34> C  -20.361   27.558   45.944
| 35> C  -20.329   28.222   47.341
| 36> C  -20.110   27.022   48.296
| 37> O  -20.473   25.807   47.535
| 38> H  -20.833   25.428   45.533
| 39> H  -19.344   27.382   45.576
| 40> H  -20.898   28.157   45.201
| 41> H  -19.543   28.978   47.434
| 42> H  -21.289   28.710   47.548
| 43> H  -20.733   27.082   49.195
| 44> H  -19.064   26.913   48.597
| 45> C  -23.210   27.459   45.431
| 46> H  -22.412   28.089   45.019
| 47> H  -23.730   26.973   44.596
| 48> O  -22.586   26.394   46.375
| 49> C  -24.232   28.378   46.156
| 50> C  -23.551   29.226   47.235
| 51> C  -22.905   30.350   46.390
| 52> C  -23.933   30.567   45.251
| 53> O  -24.788   29.362   45.221
| 54> H  -25.066   27.772   46.516
| 55> H  -24.302   29.639   47.919
| 56> O  -22.513   28.430   48.072
| 57> H  -22.722   31.262   46.966
| 58> H  -21.945   30.011   45.985
| 59> H  -23.456   30.693   44.274
| 60> H  -24.588   31.423   45.437
| 61> H  -21.751   28.007   47.408
| 62> *
| 63>
| 64>                          ****END OF INPUT****
 Total Charge           Charge          ....    0
 Multiplicity           Mult            ....    1
 Number of Electrons    NEL             ....  102
FINAL SINGLE POINT ENERGY      -652.678604202772
FINAL SINGLE POINT ENERGY      -652.742757178434
FINAL SINGLE POINT ENERGY      -652.784928388781
FINAL SINGLE POINT ENERGY      -652.810465224592
FINAL SINGLE POINT ENERGY      -652.825981301729
FINAL SINGLE POINT ENERGY      -652.835899240498
FINAL SINGLE POINT ENERGY      -652.842580493439
FINAL SINGLE POINT ENERGY      -652.846902119562
FINAL SINGLE POINT ENERGY      -652.849580003256
FINAL SINGLE POINT ENERGY      -652.851201570958
FINAL SINGLE POINT ENERGY      -652.852175577057
FINAL SINGLE POINT ENERGY      -652.852373865539
FINAL SINGLE POINT ENERGY      -652.852479704231
FINAL SINGLE POINT ENERGY      -652.852537188859
FINAL SINGLE POINT ENERGY      -652.852565091272
FINAL SINGLE POINT ENERGY      -652.852584189864
FINAL SINGLE POINT ENERGY      -652.852595890400
FINAL SINGLE POINT ENERGY      -652.852600567506
FINAL SINGLE POINT ENERGY      -652.852602407922
                    ***********************HURRAY********************

CARTESIAN COORDINATES (ANGSTROEM)
---------------------------------
  C    -21.067720   26.288571   46.273924
  C    -20.070639   27.380984   45.876323
  C    -19.910916   28.175546   47.204756
  C    -20.014500   27.069208   48.275508
  O    -20.651923   25.904908   47.585778
  H    -20.954262   25.390224   45.659204
  H    -19.137416   26.877229   45.604617
  H    -20.372144   28.005561   45.031311
  H    -18.952328   28.702093   47.250846
  H    -20.717658   28.894992   47.337008
  H    -20.633672   27.359122   49.127181
  H    -19.042461   26.715885   48.628493
  C    -23.160551   27.508527   45.366983
  H    -22.407777   28.147574   44.891138
  H    -23.685948   26.961733   44.577788
  O    -22.527795   26.539969   46.270718
  C    -24.183008   28.381757   46.113445
  C    -23.696727   29.273178   47.262485
  C    -23.114705   30.488534   46.492793
  C    -24.056394   30.619476   45.277446
  O    -24.766736   29.315866   45.153081
  H    -25.001053   27.735119   46.448739
  H    -24.576371   29.601174   47.830828
  O    -22.780513   28.632631   48.175668
  H    -23.088324   31.392874   47.107112
  H    -22.087911   30.264843   46.184128
  H    -23.525598   30.825837   44.342857
  H    -24.826679   31.382480   45.421273
  H    -22.703272   27.680106   47.930567

 Multiplicity           Mult            ....    1
 Number of Electrons    NEL             ....  102
 Basis Dimension        Dim             ....  149

ORBITAL ENERGIES
----------------

  NO   OCC          E(Eh)            E(eV)
   0   2.0000     -19.155697      -521.2530
   1   2.0000     -19.148681      -521.0621
   2   2.0000     -19.146921      -521.0142
   3   2.0000     -19.134307      -520.6710
   4   2.0000     -10.287869      -279.9471
   5   2.0000     -10.241666      -278.6899
   6   2.0000     -10.239753      -278.6378
   7   2.0000     -10.238690      -278.6089
   8   2.0000     -10.234348      -278.4908
   9   2.0000     -10.226156      -278.2679
  10   2.0000     -10.198500      -277.5153
  11   2.0000     -10.190690      -277.3028
  12   2.0000     -10.184438      -277.1326
  13   2.0000      -1.056542       -28.7500
  14   2.0000      -1.033651       -28.1271
  15   2.0000      -1.011752       -27.5312
  16   2.0000      -0.999335       -27.1933
  17   2.0000      -0.790763       -21.5177
  18   2.0000      -0.781573       -21.2677
  19   2.0000      -0.772889       -21.0314
  20   2.0000      -0.738077       -20.0841
  21   2.0000      -0.685038       -18.6408
  22   2.0000      -0.607407       -16.5284
  23   2.0000      -0.604599       -16.4520
  24   2.0000      -0.595519       -16.2049
  25   2.0000      -0.579562       -15.7707
  26   2.0000      -0.531957       -14.4753
  27   2.0000      -0.509504       -13.8643
  28   2.0000      -0.505517       -13.7558
  29   2.0000      -0.501031       -13.6337
  30   2.0000      -0.470947       -12.8151
  31   2.0000      -0.455830       -12.4038
  32   2.0000      -0.451897       -12.2967
  33   2.0000      -0.442325       -12.0363
  34   2.0000      -0.433095       -11.7851
  35   2.0000      -0.417131       -11.3507
  36   2.0000      -0.413066       -11.2401
  37   2.0000      -0.395020       -10.7491
  38   2.0000      -0.383800       -10.4437
  39   2.0000      -0.376229       -10.2377
  40   2.0000      -0.364166        -9.9095
  41   2.0000      -0.358266        -9.7489
  42   2.0000      -0.352807        -9.6004
  43   2.0000      -0.342671        -9.3245
  44   2.0000      -0.321067        -8.7367
  45   2.0000      -0.307757        -8.3745
  46   2.0000      -0.297876        -8.1056
  47   2.0000      -0.279578        -7.6077
  48   2.0000      -0.264322        -7.1926
  49   2.0000      -0.259823        -7.0701
  50   2.0000      -0.246276        -6.7015
  51   0.0000       0.053355         1.4519
  52   0.0000       0.062725         1.7068
  53   0.0000       0.088552         2.4096
  54   0.0000       0.091954         2.5022
  55   0.0000       0.109043         2.9672

MULLIKEN ATOMIC CHARGES
-----------------------
   0 C :    0.320467
   1 C :   -0.302178
   2 C :   -0.325523
   3 C :   -0.026582
   4 O :   -0.503738
   5 H :    0.158059
   6 H :    0.160662
   7 H :    0.142741
   8 H :    0.137902
   9 H :    0.197611
  10 H :    0.169606
  11 H :    0.146926
  12 C :   -0.002653
  13 H :    0.126135
  14 H :    0.164266
  15 O :   -0.553559
  16 C :    0.042780
  17 C :    0.118361
  18 C :   -0.312663
  19 C :   -0.012541
  20 O :   -0.519347
  21 H :    0.166131
  22 H :    0.151694
  23 O :   -0.640965
  24 H :    0.155482
  25 H :    0.147578
  26 H :    0.141103
  27 H :    0.152522
  28 H :    0.399727
Sum of atomic charges:   -0.0000000

LOEWDIN ATOMIC CHARGES
----------------------
   0 C :    0.181511
   1 C :   -0.231283
   2 C :   -0.232439
   3 C :   -0.031887
   4 O :   -0.305176
   5 H :    0.101965
   6 H :    0.124955
   7 H :    0.112787
   8 H :    0.113345
   9 H :    0.128513
  10 H :    0.115009
  11 H :    0.105502
  12 C :   -0.041180
  13 H :    0.095134
  14 H :    0.114749
  15 O :   -0.349267
  16 C :    0.013272
  17 C :    0.040421
  18 C :   -0.234969
  19 C :   -0.029418
  20 O :   -0.320738
  21 H :    0.116096
  22 H :    0.104984
  23 O :   -0.425543
  24 H :    0.122459
  25 H :    0.111039
  26 H :    0.101848
  27 H :    0.107587
  28 H :    0.290724

  Mayer bond orders larger than 0.100000
B(  0-C ,  1-C ) :   0.9250 B(  0-C ,  4-O ) :   0.9403 B(  0-C ,  5-H ) :   0.9301
B(  0-C , 15-O ) :   0.8130 B(  1-C ,  2-C ) :   0.9515 B(  1-C ,  6-H ) :   0.9308
B(  1-C ,  7-H ) :   0.9267 B(  2-C ,  3-C ) :   0.9526 B(  2-C ,  8-H ) :   0.9452
B(  2-C ,  9-H ) :   0.9029 B(  3-C ,  4-O ) :   0.8203 B(  3-C , 10-H ) :   0.9278
B(  3-C , 11-H ) :   0.9404 B( 12-C , 13-H ) :   0.9164 B( 12-C , 14-H ) :   0.9266
B( 12-C , 15-O ) :   0.8090 B( 12-C , 16-C ) :   0.9019 B( 16-C , 17-C ) :   0.9169
B( 16-C , 20-O ) :   0.8535 B( 16-C , 21-H ) :   0.9274 B( 17-C , 18-C ) :   0.9144
B( 17-C , 22-H ) :   0.9242 B( 17-C , 23-O ) :   0.9050 B( 18-C , 19-C ) :   0.9374
B( 18-C , 24-H ) :   0.9444 B( 18-C , 25-H ) :   0.9389 B( 19-C , 20-O ) :   0.8368
B( 19-C , 26-H ) :   0.9345 B( 19-C , 27-H ) :   0.9378 B( 23-O , 28-H ) :   0.7185

FINAL SINGLE POINT ENERGY      -652.852603532757

DIPOLE MOMENT
-------------
                                X             Y             Z
Electronic contribution:     -4.07380      -4.81929       0.99164
Nuclear contribution   :      4.92525       5.77625      -1.69560
                        -----------------------------------------
Total Dipole Moment    :      0.85145       0.95696      -0.70396
                        -----------------------------------------
Magnitude (a.u.)       :      1.46161
Magnitude (Debye)      :      3.71511

Rotational constants in cm-1:     0.049376     0.017463     0.016096
Rotational constants in MHz :  1480.256385   523.537182   482.531452

                             ****ORCA TERMINATED NORMALLY****
TOTAL RUN TIME: 0 days 1 hours 11 minutes 34 seconds 40 msec
