                         Program Version 4.2.0 -  RELEASE  -
|  1> # Test redundant internal optimization
|  2> #
|  3> ! RKS B3LYP  Opt TightSCF SmallPrint
|  4>
|  5> %basis
|  6>         Basis "6-31G"
|  7> end
|  8>
|  9> %geom
| 10> Constraints
| 11> { D 4  0  15  12  195.0   C } # D for Dihedral angle
| 12> { D 0  15  12  16  90.0   C } # D for Dihedral angle
| 13> { D 0  4  3  2   C } # D for Dihedral angle
| 14> { D 4  3  2  1   C } # D for Dihedral angle
| 15> { D 3  2  1  0   C } # D for Dihedral angle
| 16> { D 2  1  0  4   C } # D for Dihedral angle
| 17> { D 1  0  4  3   C } # D for Dihedral angle
| 18> { D 16  20  19  18   C } # D for Dihedral angle
| 19> { D 20  19  18  17   C } # D for Dihedral angle
| 20> { D 19  18  17  16   C } # D for Dihedral angle
| 21> { D 18  17  16  20   C } # D for Dihedral angle
| 22> { D 17  16  20  19   C } # D for Dihedral angle
| 23> { D 15  12  16  20   C } # D for Dihedral angle
| 24> end
| 25> end
| 26>
| 27>
| 28> #%pal
| 29> #nprocs 8
| 30> #end
| 31>
| 32> * xyz 0 1
| 33> C  -21.048   26.222   46.251
| 34> C  -20.361   27.558   45.944
| 35> C  -20.329   28.222   47.341
| 36> C  -20.110   27.022   48.296
| 37> O  -20.473   25.807   47.535
| 38> H  -20.833   25.428   45.533
| 39> H  -19.344   27.382   45.576
| 40> H  -20.898   28.157   45.201
| 41> H  -19.543   28.978   47.434
| 42> H  -21.289   28.710   47.548
| 43> H  -20.733   27.082   49.195
| 44> H  -19.064   26.913   48.597
| 45> C  -23.353   26.472   45.026
| 46> H  -24.243   27.101   45.152
| 47> H  -22.721   26.924   44.251
| 48> O  -22.586   26.394   46.375
| 49> C  -23.808   25.078   44.513
| 50> C  -22.622   24.113   44.398
| 51> C  -22.429   23.678   45.871
| 52> C  -23.877   23.643   46.420
| 53> O  -24.701   24.440   45.485
| 54> H  -24.377   25.205   43.590
| 55> O  -23.010   22.896   43.514
| 56> H  -21.727   24.578   43.972
| 57> H  -21.924   22.711   45.965
| 58> H  -21.830   24.423   46.408
| 59> H  -23.955   24.074   47.424
| 60> H  -24.294   22.632   46.435
| 61> H  -23.904   22.414   43.923
| 62> *
| 63>
| 64>                          ****END OF INPUT****
 Total Charge           Charge          ....    0
 Multiplicity           Mult            ....    1
 Number of Electrons    NEL             ....  102
FINAL SINGLE POINT ENERGY      -652.816777186007
FINAL SINGLE POINT ENERGY      -652.844000169959
FINAL SINGLE POINT ENERGY      -652.854202129814
FINAL SINGLE POINT ENERGY      -652.856526552276
FINAL SINGLE POINT ENERGY      -652.856906576509
FINAL SINGLE POINT ENERGY      -652.856938439754
FINAL SINGLE POINT ENERGY      -652.856942768386
                    ***********************HURRAY********************

CARTESIAN COORDINATES (ANGSTROEM)
---------------------------------
  C    -20.987814   26.293822   46.303786
  C    -20.295308   27.607315   45.946020
  C    -20.359474   28.380719   47.286460
  C    -20.195341   27.261510   48.335145
  O    -20.506224   25.994469   47.618946
  H    -20.737031   25.454328   45.654164
  H    -19.256510   27.402991   45.660334
  H    -20.777941   28.141509   45.122635
  H    -19.581737   29.146131   47.366313
  H    -21.335576   28.863165   47.387232
  H    -20.879735   27.356760   49.181150
  H    -19.169627   27.166079   48.702752
  C    -23.175948   26.456978   45.142913
  H    -24.050660   27.084176   45.333619
  H    -22.591204   26.924189   44.333876
  O    -22.435848   26.478300   46.397261
  C    -23.694810   25.093188   44.662829
  C    -22.695053   23.964916   44.352705
  C    -22.478390   23.330005   45.759707
  C    -23.879981   23.470683   46.409859
  O    -24.609106   24.492979   45.630144
  H    -24.287266   25.300870   43.761553
  O    -23.276341   23.016122   43.415965
  H    -21.774767   24.303492   43.874379
  H    -22.165216   22.287329   45.656261
  H    -21.728557   23.861637   46.344302
  H    -23.819789   23.801340   47.449765
  H    -24.465235   22.546619   46.358677
  H    -24.175510   22.775382   43.724245

 Multiplicity           Mult            ....    1
 Number of Electrons    NEL             ....  102
 Basis Dimension        Dim             ....  149

ORBITAL ENERGIES
----------------

  NO   OCC          E(Eh)            E(eV)
   0   2.0000     -19.146655      -521.0070
   1   2.0000     -19.146293      -520.9971
   2   2.0000     -19.138807      -520.7934
   3   2.0000     -19.137512      -520.7582
   4   2.0000     -10.284201      -279.8473
   5   2.0000     -10.242177      -278.7038
   6   2.0000     -10.235024      -278.5092
   7   2.0000     -10.234629      -278.4984
   8   2.0000     -10.229214      -278.3511
   9   2.0000     -10.222199      -278.1602
  10   2.0000     -10.191221      -277.3172
  11   2.0000     -10.189586      -277.2727
  12   2.0000     -10.180551      -277.0269
  13   2.0000      -1.058362       -28.7995
  14   2.0000      -1.035218       -28.1697
  15   2.0000      -1.006070       -27.3766
  16   2.0000      -0.996232       -27.1089
  17   2.0000      -0.790351       -21.5065
  18   2.0000      -0.774832       -21.0843
  19   2.0000      -0.767740       -20.8913
  20   2.0000      -0.737202       -20.0603
  21   2.0000      -0.677980       -18.4488
  22   2.0000      -0.606749       -16.5105
  23   2.0000      -0.600572       -16.3424
  24   2.0000      -0.599428       -16.3113
  25   2.0000      -0.576645       -15.6913
  26   2.0000      -0.526595       -14.3294
  27   2.0000      -0.509680       -13.8691
  28   2.0000      -0.502171       -13.6648
  29   2.0000      -0.488562       -13.2944
  30   2.0000      -0.471840       -12.8394
  31   2.0000      -0.458184       -12.4678
  32   2.0000      -0.452556       -12.3147
  33   2.0000      -0.442374       -12.0376
  34   2.0000      -0.427091       -11.6217
  35   2.0000      -0.409586       -11.1454
  36   2.0000      -0.407137       -11.0788
  37   2.0000      -0.389048       -10.5865
  38   2.0000      -0.382373       -10.4049
  39   2.0000      -0.366137        -9.9631
  40   2.0000      -0.361068        -9.8252
  41   2.0000      -0.357216        -9.7203
  42   2.0000      -0.353700        -9.6247
  43   2.0000      -0.328830        -8.9479
  44   2.0000      -0.319174        -8.6852
  45   2.0000      -0.309663        -8.4264
  46   2.0000      -0.303995        -8.2721
  47   2.0000      -0.271517        -7.3883
  48   2.0000      -0.267497        -7.2790
  49   2.0000      -0.261611        -7.1188
  50   2.0000      -0.236081        -6.4241
  51   0.0000       0.067940         1.8487
  52   0.0000       0.076322         2.0768
  53   0.0000       0.093009         2.5309
  54   0.0000       0.098645         2.6843
  55   0.0000       0.105220         2.8632

MULLIKEN ATOMIC CHARGES
-----------------------
   0 C :    0.295621
   1 C :   -0.270357
   2 C :   -0.296812
   3 C :   -0.000706
   4 O :   -0.515021
   5 H :    0.140888
   6 H :    0.146232
   7 H :    0.144779
   8 H :    0.143305
   9 H :    0.163453
  10 H :    0.157264
  11 H :    0.143655
  12 C :   -0.033169
  13 H :    0.171944
  14 H :    0.117335
  15 O :   -0.502451
  16 C :    0.081866
  17 C :    0.069797
  18 C :   -0.307815
  19 C :   -0.024003
  20 O :   -0.523924
  21 H :    0.151779
  22 O :   -0.604431
  23 H :    0.141754
  24 H :    0.154295
  25 H :    0.185889
  26 H :    0.165719
  27 H :    0.137178
  28 H :    0.365937
Sum of atomic charges:   -0.0000000

LOEWDIN ATOMIC CHARGES
----------------------
   0 C :    0.170857
   1 C :   -0.228019
   2 C :   -0.215652
   3 C :   -0.023053
   4 O :   -0.307734
   5 H :    0.094544
   6 H :    0.114180
   7 H :    0.114604
   8 H :    0.115150
   9 H :    0.120038
  10 H :    0.111210
  11 H :    0.103468
  12 C :   -0.046357
  13 H :    0.125353
  14 H :    0.090593
  15 O :   -0.328864
  16 C :    0.005403
  17 C :    0.033452
  18 C :   -0.244416
  19 C :   -0.033446
  20 O :   -0.328527
  21 H :    0.114965
  22 O :   -0.414572
  23 H :    0.109114
  24 H :    0.122035
  25 H :    0.130866
  26 H :    0.114666
  27 H :    0.096204
  28 H :    0.283936

  Mayer bond orders larger than 0.100000
B(  0-C ,  1-C ) :   0.9315 B(  0-C ,  4-O ) :   0.9224 B(  0-C ,  5-H ) :   0.9054
B(  0-C , 15-O ) :   0.8278 B(  1-C ,  2-C ) :   0.9520 B(  1-C ,  6-H ) :   0.9340
B(  1-C ,  7-H ) :   0.9342 B(  2-C ,  3-C ) :   0.9560 B(  2-C ,  8-H ) :   0.9448
B(  2-C ,  9-H ) :   0.9436 B(  3-C ,  4-O ) :   0.8298 B(  3-C , 10-H ) :   0.9345
B(  3-C , 11-H ) :   0.9397 B( 12-C , 13-H ) :   0.9312 B( 12-C , 14-H ) :   0.9076
B( 12-C , 15-O ) :   0.8794 B( 12-C , 16-C ) :   0.8814 B( 16-C , 17-C ) :   0.9075
B( 16-C , 20-O ) :   0.8721 B( 16-C , 21-H ) :   0.9146 B( 17-C , 18-C ) :   0.9175
B( 17-C , 22-O ) :   0.8867 B( 17-C , 23-H ) :   0.9324 B( 18-C , 19-C ) :   0.9411
B( 18-C , 24-H ) :   0.9375 B( 18-C , 25-H ) :   0.9117 B( 19-C , 20-O ) :   0.8367
B( 19-C , 26-H ) :   0.9316 B( 19-C , 27-H ) :   0.9368 B( 22-O , 28-H ) :   0.7934

FINAL SINGLE POINT ENERGY      -652.856941281857

DIPOLE MOMENT
-------------
                                X             Y             Z
Electronic contribution:     -3.68413      -3.21262      -0.97148
Nuclear contribution   :      4.38342       4.07320       0.91939
                        -----------------------------------------
Total Dipole Moment    :      0.69929       0.86058      -0.05209
                        -----------------------------------------
Magnitude (a.u.)       :      1.11010
Magnitude (Debye)      :      2.82164

Rotational constants in cm-1:     0.056164     0.014342     0.013922
Rotational constants in MHz :  1683.762737   429.957688   417.359814

                             ****ORCA TERMINATED NORMALLY****
TOTAL RUN TIME: 0 days 0 hours 20 minutes 12 seconds 415 msec
