                         Program Version 4.2.0 -  RELEASE  -
|  1> # Test redundant internal optimization
|  2> #
|  3> ! RKS B3LYP  Opt TightSCF SmallPrint
|  4>
|  5> %basis
|  6>         Basis "6-31G"
|  7> end
|  8>
|  9> %geom
| 10> Constraints
| 11> { D 4  0  15  12  180.0   C } # D for Dihedral angle
| 12> { D 0  15  12  16  225.0   C } # D for Dihedral angle
| 13> { D 0  4  3  2   C } # D for Dihedral angle
| 14> { D 4  3  2  1   C } # D for Dihedral angle
| 15> { D 3  2  1  0   C } # D for Dihedral angle
| 16> { D 2  1  0  4   C } # D for Dihedral angle
| 17> { D 1  0  4  3   C } # D for Dihedral angle
| 18> { D 16  20  19  18   C } # D for Dihedral angle
| 19> { D 20  19  18  17   C } # D for Dihedral angle
| 20> { D 19  18  17  16   C } # D for Dihedral angle
| 21> { D 18  17  16  20   C } # D for Dihedral angle
| 22> { D 17  16  20  19   C } # D for Dihedral angle
| 23> { D 15  12  16  20   C } # D for Dihedral angle
| 24> end
| 25> end
| 26>
| 27>
| 28> #%pal
| 29> #nprocs 8
| 30> #end
| 31>
| 32> * xyz 0 1
| 33> C  -21.048   26.222   46.251
| 34> C  -20.361   27.558   45.944
| 35> C  -20.329   28.222   47.341
| 36> C  -20.110   27.022   48.296
| 37> O  -20.473   25.807   47.535
| 38> H  -20.833   25.428   45.533
| 39> H  -19.344   27.382   45.576
| 40> H  -20.898   28.157   45.201
| 41> H  -19.543   28.978   47.434
| 42> H  -21.289   28.710   47.548
| 43> H  -20.733   27.082   49.195
| 44> H  -19.064   26.913   48.597
| 45> C  -23.309   26.834   45.072
| 46> H  -22.565   27.195   44.351
| 47> H  -23.839   25.985   44.622
| 48> O  -22.586   26.394   46.375
| 49> C  -24.346   27.965   45.313
| 50> C  -25.369   27.563   46.382
| 51> C  -24.572   27.806   47.686
| 52> C  -23.709   29.046   47.345
| 53> O  -23.690   29.152   45.869
| 54> H  -24.784   28.259   44.357
| 55> H  -26.242   28.224   46.334
| 56> O  -25.857   26.096   46.240
| 57> H  -25.218   27.974   48.554
| 58> H  -23.935   26.941   47.905
| 59> H  -22.681   28.956   47.711
| 60> H  -24.141   29.975   47.729
| 61> H  -24.999   25.416   46.285
| 62> *
| 63>
| 64>                          ****END OF INPUT****
 Total Charge           Charge          ....    0
 Multiplicity           Mult            ....    1
 Number of Electrons    NEL             ....  102
FINAL SINGLE POINT ENERGY      -652.824196867996
FINAL SINGLE POINT ENERGY      -652.846656790736
FINAL SINGLE POINT ENERGY      -652.855353493043
FINAL SINGLE POINT ENERGY      -652.858764774035
FINAL SINGLE POINT ENERGY      -652.859188421664
FINAL SINGLE POINT ENERGY      -652.859238538683
FINAL SINGLE POINT ENERGY      -652.859244846406
                    ***********************HURRAY********************

CARTESIAN COORDINATES (ANGSTROEM)
---------------------------------
  C    -21.024327   26.242980   46.166378
  C    -20.266766   27.538305   45.882349
  C    -20.220274   28.198352   47.282972
  C    -20.079971   26.986910   48.226963
  O    -20.503410   25.805812   47.425957
  H    -20.826832   25.442508   45.444579
  H    -19.261338   27.280694   45.531143
  H    -20.740589   28.182557   45.138030
  H    -19.388255   28.901857   47.384369
  H    -21.149370   28.741078   47.457175
  H    -20.713248   27.050197   49.115462
  H    -19.046210   26.800835   48.530984
  C    -23.193444   26.828960   45.112913
  H    -22.488896   27.213700   44.366341
  H    -23.718526   25.971813   44.671070
  O    -22.476215   26.386484   46.305791
  C    -24.223501   27.916845   45.402737
  C    -25.362367   27.508516   46.353562
  C    -24.752920   27.849308   47.746342
  C    -23.915360   29.109349   47.455237
  O    -23.706392   29.151193   45.979630
  H    -24.633594   28.199710   44.424308
  H    -26.251155   28.109682   46.150899
  O    -25.795292   26.135570   46.211241
  H    -25.521749   28.017583   48.505404
  H    -24.109944   27.021186   48.058531
  H    -22.948056   29.098953   47.959084
  H    -24.441973   30.032553   47.717081
  H    -25.107022   25.538506   46.574469

 Multiplicity           Mult            ....    1
 Number of Electrons    NEL             ....  102
 Basis Dimension        Dim             ....  149

ORBITAL ENERGIES
----------------

  NO   OCC          E(Eh)            E(eV)
   0   2.0000     -19.147358      -521.0261
   1   2.0000     -19.145503      -520.9756
   2   2.0000     -19.141365      -520.8630
   3   2.0000     -19.139174      -520.8034
   4   2.0000     -10.283891      -279.8389
   5   2.0000     -10.237453      -278.5753
   6   2.0000     -10.233163      -278.4585
   7   2.0000     -10.232645      -278.4444
   8   2.0000     -10.229103      -278.3480
   9   2.0000     -10.226704      -278.2828
  10   2.0000     -10.189605      -277.2733
  11   2.0000     -10.188435      -277.2414
  12   2.0000     -10.181435      -277.0509
  13   2.0000      -1.056475       -28.7482
  14   2.0000      -1.029293       -28.0085
  15   2.0000      -1.011205       -27.5163
  16   2.0000      -0.997046       -27.1310
  17   2.0000      -0.789549       -21.4847
  18   2.0000      -0.775321       -21.0976
  19   2.0000      -0.768771       -20.9193
  20   2.0000      -0.735800       -20.0221
  21   2.0000      -0.681741       -18.5511
  22   2.0000      -0.607381       -16.5277
  23   2.0000      -0.602999       -16.4084
  24   2.0000      -0.595768       -16.2117
  25   2.0000      -0.569776       -15.5044
  26   2.0000      -0.529335       -14.4039
  27   2.0000      -0.507879       -13.8201
  28   2.0000      -0.497189       -13.5292
  29   2.0000      -0.493894       -13.4395
  30   2.0000      -0.473710       -12.8903
  31   2.0000      -0.461590       -12.5605
  32   2.0000      -0.446596       -12.1525
  33   2.0000      -0.436338       -11.8734
  34   2.0000      -0.426110       -11.5950
  35   2.0000      -0.412531       -11.2255
  36   2.0000      -0.404813       -11.0155
  37   2.0000      -0.401664       -10.9298
  38   2.0000      -0.378872       -10.3096
  39   2.0000      -0.373453       -10.1622
  40   2.0000      -0.357745        -9.7347
  41   2.0000      -0.356694        -9.7061
  42   2.0000      -0.350955        -9.5500
  43   2.0000      -0.328643        -8.9428
  44   2.0000      -0.318685        -8.6719
  45   2.0000      -0.311807        -8.4847
  46   2.0000      -0.304086        -8.2746
  47   2.0000      -0.269107        -7.3228
  48   2.0000      -0.263848        -7.1797
  49   2.0000      -0.260063        -7.0767
  50   2.0000      -0.241492        -6.5713
  51   0.0000       0.066295         1.8040
  52   0.0000       0.075596         2.0571
  53   0.0000       0.092867         2.5270
  54   0.0000       0.095181         2.5900
  55   0.0000       0.102977         2.8022

MULLIKEN ATOMIC CHARGES
-----------------------
   0 C :    0.310970
   1 C :   -0.283954
   2 C :   -0.315673
   3 C :   -0.003880
   4 O :   -0.504893
   5 H :    0.143924
   6 H :    0.148740
   7 H :    0.162468
   8 H :    0.144716
   9 H :    0.177477
  10 H :    0.147938
  11 H :    0.145116
  12 C :   -0.041116
  13 H :    0.139828
  14 H :    0.150064
  15 O :   -0.530983
  16 C :    0.103249
  17 C :    0.088244
  18 C :   -0.316781
  19 C :   -0.007359
  20 O :   -0.526550
  21 H :    0.146597
  22 H :    0.160905
  23 O :   -0.606809
  24 H :    0.148008
  25 H :    0.172042
  26 H :    0.135695
  27 H :    0.142547
  28 H :    0.369470
Sum of atomic charges:   -0.0000000

LOEWDIN ATOMIC CHARGES
----------------------
   0 C :    0.182970
   1 C :   -0.230970
   2 C :   -0.218602
   3 C :   -0.026079
   4 O :   -0.303405
   5 H :    0.095884
   6 H :    0.117119
   7 H :    0.122999
   8 H :    0.116241
   9 H :    0.120426
  10 H :    0.106242
  11 H :    0.104374
  12 C :   -0.053403
  13 H :    0.103356
  14 H :    0.107961
  15 O :   -0.349617
  16 C :    0.015617
  17 C :    0.037538
  18 C :   -0.242588
  19 C :   -0.025125
  20 O :   -0.326611
  21 H :    0.113462
  22 H :    0.115468
  23 O :   -0.409954
  24 H :    0.117350
  25 H :    0.125118
  26 H :    0.096947
  27 H :    0.101187
  28 H :    0.286096

  Mayer bond orders larger than 0.100000
B(  0-C ,  1-C ) :   0.9278 B(  0-C ,  4-O ) :   0.9406 B(  0-C ,  5-H ) :   0.9231
B(  0-C , 15-O ) :   0.8235 B(  1-C ,  2-C ) :   0.9518 B(  1-C ,  6-H ) :   0.9323
B(  1-C ,  7-H ) :   0.9254 B(  2-C ,  3-C ) :   0.9573 B(  2-C ,  8-H ) :   0.9449
B(  2-C ,  9-H ) :   0.9223 B(  3-C ,  4-O ) :   0.8338 B(  3-C , 10-H ) :   0.9347
B(  3-C , 11-H ) :   0.9392 B( 12-C , 13-H ) :   0.9193 B( 12-C , 14-H ) :   0.9075
B( 12-C , 15-O ) :   0.8395 B( 12-C , 16-C ) :   0.9065 B( 16-C , 17-C ) :   0.8873
B( 16-C , 20-O ) :   0.8770 B( 16-C , 21-H ) :   0.9251 B( 17-C , 18-C ) :   0.9323
B( 17-C , 22-H ) :   0.9365 B( 17-C , 23-O ) :   0.9056 B( 18-C , 19-C ) :   0.9473
B( 18-C , 24-H ) :   0.9401 B( 18-C , 25-H ) :   0.9265 B( 19-C , 20-O ) :   0.8425
B( 19-C , 26-H ) :   0.9138 B( 19-C , 27-H ) :   0.9394 B( 23-O , 28-H ) :   0.7893

FINAL SINGLE POINT ENERGY      -652.859244032036

DIPOLE MOMENT
-------------
                                X             Y             Z
Electronic contribution:     -2.62865      -3.29623      -1.55745
Nuclear contribution   :      3.36267       3.91333       1.60905
                        -----------------------------------------
Total Dipole Moment    :      0.73402       0.61710       0.05160
                        -----------------------------------------
Magnitude (a.u.)       :      0.96034
Magnitude (Debye)      :      2.44100

Rotational constants in cm-1:     0.044955     0.017640     0.016316
Rotational constants in MHz :  1347.716919   528.847882   489.143887

                             ****ORCA TERMINATED NORMALLY****
TOTAL RUN TIME: 0 days 0 hours 19 minutes 15 seconds 252 msec
