                         Program Version 4.2.0 -  RELEASE  -
|  1> # Test redundant internal optimization
|  2> #
|  3> ! RKS B3LYP  Opt TightSCF SmallPrint
|  4>
|  5> %basis
|  6>         Basis "6-31G"
|  7> end
|  8>
|  9> %geom
| 10> Constraints
| 11> { D 4  0  15  12  210.0   C } # D for Dihedral angle
| 12> { D 0  15  12  16  90.0   C } # D for Dihedral angle
| 13> { D 0  4  3  2   C } # D for Dihedral angle
| 14> { D 4  3  2  1   C } # D for Dihedral angle
| 15> { D 3  2  1  0   C } # D for Dihedral angle
| 16> { D 2  1  0  4   C } # D for Dihedral angle
| 17> { D 1  0  4  3   C } # D for Dihedral angle
| 18> { D 16  20  19  18   C } # D for Dihedral angle
| 19> { D 20  19  18  17   C } # D for Dihedral angle
| 20> { D 19  18  17  16   C } # D for Dihedral angle
| 21> { D 18  17  16  20   C } # D for Dihedral angle
| 22> { D 17  16  20  19   C } # D for Dihedral angle
| 23> { D 15  12  16  20   C } # D for Dihedral angle
| 24> end
| 25> end
| 26>
| 27>
| 28> #%pal
| 29> #nprocs 8
| 30> #end
| 31>
| 32> * xyz 0 1
| 33> C  -21.048   26.222   46.251
| 34> C  -20.361   27.558   45.944
| 35> C  -20.329   28.222   47.341
| 36> C  -20.110   27.022   48.296
| 37> O  -20.473   25.807   47.535
| 38> H  -20.833   25.428   45.533
| 39> H  -19.344   27.382   45.576
| 40> H  -20.898   28.157   45.201
| 41> H  -19.543   28.978   47.434
| 42> H  -21.289   28.710   47.548
| 43> H  -20.733   27.082   49.195
| 44> H  -19.064   26.913   48.597
| 45> C  -23.389   26.110   45.076
| 46> H  -24.291   26.735   45.064
| 47> H  -22.789   26.358   44.191
| 48> O  -22.586   26.394   46.375
| 49> C  -23.823   24.624   44.951
| 50> C  -24.808   24.236   46.060
| 51> C  -26.133   24.829   45.525
| 52> C  -26.010   24.636   43.992
| 53> O  -24.576   24.412   43.710
| 54> H  -22.933   23.994   44.896
| 55> O  -24.903   22.690   46.171
| 56> H  -24.529   24.635   47.042
| 57> H  -27.017   24.333   45.938
| 58> H  -26.197   25.894   45.777
| 59> H  -26.354   25.510   43.431
| 60> H  -26.550   23.753   43.638
| 61> H  -25.182   22.267   45.198
| 62> *
| 63>
| 64>                          ****END OF INPUT****
 Total Charge           Charge          ....    0
 Multiplicity           Mult            ....    1
 Number of Electrons    NEL             ....  102
FINAL SINGLE POINT ENERGY      -652.836628088966
FINAL SINGLE POINT ENERGY      -652.858985343992
FINAL SINGLE POINT ENERGY      -652.862039003925
FINAL SINGLE POINT ENERGY      -652.862598541122
FINAL SINGLE POINT ENERGY      -652.862687515900
FINAL SINGLE POINT ENERGY      -652.862696891849
                    ***********************HURRAY********************

CARTESIAN COORDINATES (ANGSTROEM)
---------------------------------
  C    -21.112471   26.178073   46.175834
  C    -20.390967   27.496983   45.910413
  C    -20.420704   28.164487   47.305381
  C    -20.273660   26.965733   48.265351
  O    -20.624346   25.764462   47.459546
  H    -20.898204   25.373037   45.466543
  H    -19.360701   27.291904   45.595446
  H    -20.877504   28.097283   45.136584
  H    -19.624978   28.904106   47.434754
  H    -21.384310   28.660732   47.454093
  H    -20.945456   27.014829   49.125462
  H    -19.246739   26.818811   48.612149
  C    -23.316370   26.150032   45.053583
  H    -24.168142   26.834646   45.091918
  H    -22.731046   26.391006   44.155671
  O    -22.554090   26.393768   46.271982
  C    -23.784479   24.694755   44.974397
  C    -24.748440   24.263558   46.088988
  C    -26.092933   24.839854   45.579732
  C    -25.988167   24.681224   44.042505
  O    -24.546946   24.491747   43.735443
  H    -22.922714   24.021459   44.931066
  O    -24.793417   22.813662   46.200839
  H    -24.451511   24.629125   47.070448
  H    -26.934256   24.290039   46.008092
  H    -26.191572   25.892214   45.867063
  H    -26.355321   25.555868   43.496580
  H    -26.513649   23.794672   43.673625
  H    -24.841907   22.422929   45.302512

 Multiplicity           Mult            ....    1
 Number of Electrons    NEL             ....  102
 Basis Dimension        Dim             ....  149

ORBITAL ENERGIES
----------------

  NO   OCC          E(Eh)            E(eV)
   0   2.0000     -19.145251      -520.9688
   1   2.0000     -19.144426      -520.9463
   2   2.0000     -19.141271      -520.8605
   3   2.0000     -19.132870      -520.6319
   4   2.0000     -10.281468      -279.7730
   5   2.0000     -10.233899      -278.4786
   6   2.0000     -10.233712      -278.4735
   7   2.0000     -10.232235      -278.4333
   8   2.0000     -10.232080      -278.4290
   9   2.0000     -10.225310      -278.2448
  10   2.0000     -10.187268      -277.2097
  11   2.0000     -10.186734      -277.1951
  12   2.0000     -10.186617      -277.1920
  13   2.0000      -1.054168       -28.6854
  14   2.0000      -1.035114       -28.1669
  15   2.0000      -1.002804       -27.2877
  16   2.0000      -0.996312       -27.1110
  17   2.0000      -0.788268       -21.4499
  18   2.0000      -0.778121       -21.1737
  19   2.0000      -0.766302       -20.8522
  20   2.0000      -0.732604       -19.9352
  21   2.0000      -0.675840       -18.3905
  22   2.0000      -0.602955       -16.4073
  23   2.0000      -0.602080       -16.3834
  24   2.0000      -0.598724       -16.2921
  25   2.0000      -0.575385       -15.6570
  26   2.0000      -0.521175       -14.1819
  27   2.0000      -0.519155       -14.1269
  28   2.0000      -0.494723       -13.4621
  29   2.0000      -0.491065       -13.3626
  30   2.0000      -0.468228       -12.7411
  31   2.0000      -0.459624       -12.5070
  32   2.0000      -0.454491       -12.3673
  33   2.0000      -0.437564       -11.9067
  34   2.0000      -0.424745       -11.5579
  35   2.0000      -0.412131       -11.2147
  36   2.0000      -0.401555       -10.9269
  37   2.0000      -0.390922       -10.6375
  38   2.0000      -0.374917       -10.2020
  39   2.0000      -0.367260        -9.9937
  40   2.0000      -0.360593        -9.8122
  41   2.0000      -0.357332        -9.7235
  42   2.0000      -0.354696        -9.6518
  43   2.0000      -0.331291        -9.0149
  44   2.0000      -0.315126        -8.5750
  45   2.0000      -0.313141        -8.5210
  46   2.0000      -0.302469        -8.2306
  47   2.0000      -0.275634        -7.5004
  48   2.0000      -0.262962        -7.1556
  49   2.0000      -0.256187        -6.9712
  50   2.0000      -0.238973        -6.5028
  51   0.0000       0.064634         1.7588
  52   0.0000       0.074364         2.0235
  53   0.0000       0.094843         2.5808
  54   0.0000       0.098559         2.6819
  55   0.0000       0.103432         2.8145

MULLIKEN ATOMIC CHARGES
-----------------------
   0 C :    0.288656
   1 C :   -0.260374
   2 C :   -0.299798
   3 C :   -0.002034
   4 O :   -0.501470
   5 H :    0.143444
   6 H :    0.144539
   7 H :    0.144965
   8 H :    0.142372
   9 H :    0.161689
  10 H :    0.154695
  11 H :    0.142682
  12 C :   -0.037298
  13 H :    0.149519
  14 H :    0.141763
  15 O :   -0.508318
  16 C :    0.057543
  17 C :    0.095171
  18 C :   -0.299507
  19 C :   -0.032747
  20 O :   -0.527663
  21 H :    0.161513
  22 O :   -0.602485
  23 H :    0.180383
  24 H :    0.162124
  25 H :    0.145520
  26 H :    0.146713
  27 H :    0.147008
  28 H :    0.361397
Sum of atomic charges:   -0.0000000

LOEWDIN ATOMIC CHARGES
----------------------
   0 C :    0.177388
   1 C :   -0.226484
   2 C :   -0.216851
   3 C :   -0.024824
   4 O :   -0.305064
   5 H :    0.098241
   6 H :    0.113437
   7 H :    0.115944
   8 H :    0.114592
   9 H :    0.119048
  10 H :    0.109677
  11 H :    0.103003
  12 C :   -0.045601
  13 H :    0.110339
  14 H :    0.102038
  15 O :   -0.335388
  16 C :    0.005829
  17 C :    0.039721
  18 C :   -0.241566
  19 C :   -0.038770
  20 O :   -0.333275
  21 H :    0.114065
  22 O :   -0.413893
  23 H :    0.130177
  24 H :    0.127085
  25 H :    0.113938
  26 H :    0.103817
  27 H :    0.102781
  28 H :    0.280598

  Mayer bond orders larger than 0.100000
B(  0-C ,  1-C ) :   0.9340 B(  0-C ,  4-O ) :   0.9404 B(  0-C ,  5-H ) :   0.9179
B(  0-C , 15-O ) :   0.8236 B(  1-C ,  2-C ) :   0.9537 B(  1-C ,  6-H ) :   0.9343
B(  1-C ,  7-H ) :   0.9374 B(  2-C ,  3-C ) :   0.9556 B(  2-C ,  8-H ) :   0.9449
B(  2-C ,  9-H ) :   0.9437 B(  3-C ,  4-O ) :   0.8347 B(  3-C , 10-H ) :   0.9344
B(  3-C , 11-H ) :   0.9397 B( 12-C , 13-H ) :   0.9383 B( 12-C , 14-H ) :   0.9199
B( 12-C , 15-O ) :   0.8491 B( 12-C , 16-C ) :   0.8778 B( 16-C , 17-C ) :   0.9137
B( 16-C , 20-O ) :   0.8404 B( 16-C , 21-H ) :   0.9257 B( 17-C , 18-C ) :   0.9133
B( 17-C , 22-O ) :   0.8898 B( 17-C , 23-H ) :   0.9228 B( 18-C , 19-C ) :   0.9397
B( 18-C , 24-H ) :   0.9380 B( 18-C , 25-H ) :   0.9348 B( 19-C , 20-O ) :   0.8412
B( 19-C , 26-H ) :   0.9356 B( 19-C , 27-H ) :   0.9383 B( 22-O , 28-H ) :   0.7965

FINAL SINGLE POINT ENERGY      -652.862698493702

DIPOLE MOMENT
-------------
                                X             Y             Z
Electronic contribution:     -0.33973      -5.02968      -0.20566
Nuclear contribution   :      0.29182       6.28110      -0.35182
                        -----------------------------------------
Total Dipole Moment    :     -0.04791       1.25142      -0.55748
                        -----------------------------------------
Magnitude (a.u.)       :      1.37081
Magnitude (Debye)      :      3.48433

Rotational constants in cm-1:     0.060947     0.012165     0.011300
Rotational constants in MHz :  1827.134151   364.706139   338.776795

                             ****ORCA TERMINATED NORMALLY****
TOTAL RUN TIME: 0 days 0 hours 14 minutes 18 seconds 751 msec
