                         Program Version 4.2.0 -  RELEASE  -
|  1> # Test redundant internal optimization
|  2> #
|  3> ! RKS B3LYP  Opt TightSCF SmallPrint
|  4>
|  5> %basis
|  6>         Basis "6-31G"
|  7> end
|  8>
|  9> %geom
| 10> Constraints
| 11> { D 4  0  15  12  240.0   C } # D for Dihedral angle
| 12> { D 0  15  12  16  45.0   C } # D for Dihedral angle
| 13> { D 0  4  3  2   C } # D for Dihedral angle
| 14> { D 4  3  2  1   C } # D for Dihedral angle
| 15> { D 3  2  1  0   C } # D for Dihedral angle
| 16> { D 2  1  0  4   C } # D for Dihedral angle
| 17> { D 1  0  4  3   C } # D for Dihedral angle
| 18> { D 16  20  19  18   C } # D for Dihedral angle
| 19> { D 20  19  18  17   C } # D for Dihedral angle
| 20> { D 19  18  17  16   C } # D for Dihedral angle
| 21> { D 18  17  16  20   C } # D for Dihedral angle
| 22> { D 17  16  20  19   C } # D for Dihedral angle
| 23> { D 15  12  16  20   C } # D for Dihedral angle
| 24> end
| 25> end
| 26>
| 27>
| 28> #%pal
| 29> #nprocs 8
| 30> #end
| 31>
| 32> * xyz 0 1
| 33> C  -21.048   26.222   46.251
| 34> C  -20.361   27.558   45.944
| 35> C  -20.329   28.222   47.341
| 36> C  -20.110   27.022   48.296
| 37> O  -20.473   25.807   47.535
| 38> H  -20.833   25.428   45.533
| 39> H  -19.344   27.382   45.576
| 40> H  -20.898   28.157   45.201
| 41> H  -19.543   28.978   47.434
| 42> H  -21.289   28.710   47.548
| 43> H  -20.733   27.082   49.195
| 44> H  -19.064   26.913   48.597
| 45> C  -23.430   25.483   45.442
| 46> H  -24.474   25.486   45.780
| 47> H  -23.402   25.858   44.411
| 48> O  -22.586   26.394   46.375
| 49> C  -22.928   24.012   45.424
| 50> C  -23.092   23.352   46.798
| 51> C  -24.598   22.999   46.798
| 52> C  -24.874   22.634   45.318
| 53> O  -23.758   23.198   44.530
| 54> H  -21.911   23.986   45.028
| 55> O  -22.227   22.064   46.875
| 56> H  -22.808   24.007   47.628
| 57> H  -24.842   22.181   47.483
| 58> H  -25.189   23.874   47.097
| 59> H  -25.818   23.051   44.952
| 60> H  -24.875   21.554   45.148
| 61> H  -22.494   21.390   46.052
| 62> *
| 63>
| 64>                          ****END OF INPUT****
 Total Charge           Charge          ....    0
 Multiplicity           Mult            ....    1
 Number of Electrons    NEL             ....  102
FINAL SINGLE POINT ENERGY      -652.833567060862
FINAL SINGLE POINT ENERGY      -652.855908206544
FINAL SINGLE POINT ENERGY      -652.859910470894
FINAL SINGLE POINT ENERGY      -652.860501298490
FINAL SINGLE POINT ENERGY      -652.860587338271
FINAL SINGLE POINT ENERGY      -652.860596766118
                    ***********************HURRAY********************

CARTESIAN COORDINATES (ANGSTROEM)
---------------------------------
  C    -20.970402   26.163586   46.219924
  C    -20.350971   27.532903   45.938872
  C    -20.467283   28.225014   47.318565
  C    -20.245690   27.060552   48.308926
  O    -20.477018   25.816820   47.530825
  H    -20.663109   25.368858   45.539520
  H    -19.299996   27.407286   45.652403
  H    -20.873942   28.067417   45.142571
  H    -19.737741   29.029586   47.450102
  H    -21.471683   28.642468   47.434332
  H    -20.937659   27.078204   49.154713
  H    -19.218526   27.008539   48.682118
  C    -23.267657   25.463536   45.438679
  H    -24.270821   25.613240   45.845985
  H    -23.270104   25.821464   44.399793
  O    -22.412835   26.307748   46.265123
  C    -22.908580   23.971384   45.420470
  C    -23.024389   23.244324   46.768048
  C    -24.551634   23.008517   46.863320
  C    -24.968447   22.753679   45.393518
  O    -23.864927   23.278859   44.545932
  H    -21.922695   23.805460   44.978914
  O    -22.288826   21.988646   46.736545
  H    -22.605191   23.811789   47.598673
  H    -24.769963   22.162833   47.520233
  H    -25.049050   23.894733   47.271303
  H    -25.898581   23.259486   45.118195
  H    -25.069074   21.688730   45.162039
  H    -22.474207   21.528339   45.890357

 Multiplicity           Mult            ....    1
 Number of Electrons    NEL             ....  102
 Basis Dimension        Dim             ....  149

ORBITAL ENERGIES
----------------

  NO   OCC          E(Eh)            E(eV)
   0   2.0000     -19.146883      -521.0132
   1   2.0000     -19.142295      -520.8883
   2   2.0000     -19.138545      -520.7863
   3   2.0000     -19.133027      -520.6361
   4   2.0000     -10.279848      -279.7289
   5   2.0000     -10.234896      -278.5057
   6   2.0000     -10.234278      -278.4889
   7   2.0000     -10.232932      -278.4522
   8   2.0000     -10.232515      -278.4409
   9   2.0000     -10.223279      -278.1896
  10   2.0000     -10.186995      -277.2022
  11   2.0000     -10.184176      -277.1255
  12   2.0000     -10.183825      -277.1160
  13   2.0000      -1.051592       -28.6153
  14   2.0000      -1.035793       -28.1854
  15   2.0000      -1.002964       -27.2920
  16   2.0000      -0.993056       -27.0224
  17   2.0000      -0.786990       -21.4151
  18   2.0000      -0.777226       -21.1494
  19   2.0000      -0.765762       -20.8374
  20   2.0000      -0.733815       -19.9681
  21   2.0000      -0.675002       -18.3677
  22   2.0000      -0.607413       -16.5286
  23   2.0000      -0.601519       -16.3682
  24   2.0000      -0.596825       -16.2404
  25   2.0000      -0.570055       -15.5120
  26   2.0000      -0.522507       -14.2181
  27   2.0000      -0.520587       -14.1659
  28   2.0000      -0.494514       -13.4564
  29   2.0000      -0.484400       -13.1812
  30   2.0000      -0.465859       -12.6767
  31   2.0000      -0.460611       -12.5339
  32   2.0000      -0.452919       -12.3245
  33   2.0000      -0.432550       -11.7703
  34   2.0000      -0.424029       -11.5384
  35   2.0000      -0.413125       -11.2417
  36   2.0000      -0.400327       -10.8935
  37   2.0000      -0.391643       -10.6571
  38   2.0000      -0.373046       -10.1511
  39   2.0000      -0.367441        -9.9986
  40   2.0000      -0.362137        -9.8542
  41   2.0000      -0.355118        -9.6632
  42   2.0000      -0.350079        -9.5261
  43   2.0000      -0.333040        -9.0625
  44   2.0000      -0.316430        -8.6105
  45   2.0000      -0.308707        -8.4003
  46   2.0000      -0.304382        -8.2827
  47   2.0000      -0.267769        -7.2864
  48   2.0000      -0.265462        -7.2236
  49   2.0000      -0.255353        -6.9485
  50   2.0000      -0.238434        -6.4881
  51   0.0000       0.063732         1.7342
  52   0.0000       0.075426         2.0524
  53   0.0000       0.092622         2.5204
  54   0.0000       0.097857         2.6628
  55   0.0000       0.101659         2.7663

MULLIKEN ATOMIC CHARGES
-----------------------
   0 C :    0.277109
   1 C :   -0.249235
   2 C :   -0.299247
   3 C :   -0.001551
   4 O :   -0.502818
   5 H :    0.147555
   6 H :    0.143289
   7 H :    0.146953
   8 H :    0.140589
   9 H :    0.163605
  10 H :    0.150501
  11 H :    0.142251
  12 C :    0.000071
  13 H :    0.148855
  14 H :    0.145293
  15 O :   -0.526683
  16 C :    0.033806
  17 C :    0.086001
  18 C :   -0.301618
  19 C :   -0.031410
  20 O :   -0.530207
  21 H :    0.161353
  22 O :   -0.601604
  23 H :    0.189371
  24 H :    0.165400
  25 H :    0.148701
  26 H :    0.146406
  27 H :    0.147027
  28 H :    0.360233
Sum of atomic charges:    0.0000000

LOEWDIN ATOMIC CHARGES
----------------------
   0 C :    0.172410
   1 C :   -0.218622
   2 C :   -0.216225
   3 C :   -0.026513
   4 O :   -0.317454
   5 H :    0.101048
   6 H :    0.112385
   7 H :    0.118830
   8 H :    0.113565
   9 H :    0.119889
  10 H :    0.107264
  11 H :    0.102592
  12 C :   -0.037903
  13 H :    0.112251
  14 H :    0.101564
  15 O :   -0.333877
  16 C :    0.000785
  17 C :    0.036077
  18 C :   -0.241279
  19 C :   -0.037934
  20 O :   -0.330350
  21 H :    0.110789
  22 O :   -0.413490
  23 H :    0.133620
  24 H :    0.127985
  25 H :    0.115464
  26 H :    0.104240
  27 H :    0.103116
  28 H :    0.279772

  Mayer bond orders larger than 0.100000
B(  0-C ,  1-C ) :   0.9420 B(  0-C ,  4-O ) :   0.9212 B(  0-C ,  5-H ) :   0.9141
B(  0-C , 15-O ) :   0.8377 B(  1-C ,  2-C ) :   0.9570 B(  1-C ,  6-H ) :   0.9371
B(  1-C ,  7-H ) :   0.9388 B(  2-C ,  3-C ) :   0.9541 B(  2-C ,  8-H ) :   0.9454
B(  2-C ,  9-H ) :   0.9434 B(  3-C ,  4-O ) :   0.8361 B(  3-C , 10-H ) :   0.9351
B(  3-C , 11-H ) :   0.9398 B( 12-C , 13-H ) :   0.9394 B( 12-C , 14-H ) :   0.9193
B( 12-C , 15-O ) :   0.8418 B( 12-C , 16-C ) :   0.8839 B( 16-C , 17-C ) :   0.9066
B( 16-C , 20-O ) :   0.8304 B( 16-C , 21-H ) :   0.9212 B( 17-C , 18-C ) :   0.9125
B( 17-C , 22-O ) :   0.8852 B( 17-C , 23-H ) :   0.9165 B( 18-C , 19-C ) :   0.9400
B( 18-C , 24-H ) :   0.9370 B( 18-C , 25-H ) :   0.9338 B( 19-C , 20-O ) :   0.8413
B( 19-C , 26-H ) :   0.9360 B( 19-C , 27-H ) :   0.9386 B( 22-O , 28-H ) :   0.7970

FINAL SINGLE POINT ENERGY      -652.860598800870

DIPOLE MOMENT
-------------
                                X             Y             Z
Electronic contribution:      0.38796      -3.83939      -1.21905
Nuclear contribution   :     -0.77304       4.56296       0.97113
                        -----------------------------------------
Total Dipole Moment    :     -0.38508       0.72357      -0.24791
                        -----------------------------------------
Magnitude (a.u.)       :      0.85633
Magnitude (Debye)      :      2.17662

Rotational constants in cm-1:     0.058171     0.013534     0.012378
Rotational constants in MHz :  1743.910606   405.729635   371.089208

                             ****ORCA TERMINATED NORMALLY****
TOTAL RUN TIME: 0 days 0 hours 32 minutes 59 seconds 644 msec
