                         Program Version 4.2.0 -  RELEASE  -
|  1> # Test redundant internal optimization
|  2> #
|  3> ! RKS B3LYP  Opt TightSCF SmallPrint
|  4>
|  5> %basis
|  6>         Basis "6-31G"
|  7> end
|  8>
|  9> %geom
| 10> Constraints
| 11> { D 4  0  15  12  180.0   C } # D for Dihedral angle
| 12> { D 0  15  12  16  300.0   C } # D for Dihedral angle
| 13> { D 0  4  3  2   C } # D for Dihedral angle
| 14> { D 4  3  2  1   C } # D for Dihedral angle
| 15> { D 3  2  1  0   C } # D for Dihedral angle
| 16> { D 2  1  0  4   C } # D for Dihedral angle
| 17> { D 1  0  4  3   C } # D for Dihedral angle
| 18> { D 16  20  19  18   C } # D for Dihedral angle
| 19> { D 20  19  18  17   C } # D for Dihedral angle
| 20> { D 19  18  17  16   C } # D for Dihedral angle
| 21> { D 18  17  16  20   C } # D for Dihedral angle
| 22> { D 17  16  20  19   C } # D for Dihedral angle
| 23> { D 15  12  16  20   C } # D for Dihedral angle
| 24> end
| 25> end
| 26>
| 27>
| 28> #%pal
| 29> #nprocs 8
| 30> #end
| 31>
| 32> * xyz 0 1
| 33> C  -21.048   26.222   46.251
| 34> C  -20.361   27.558   45.944
| 35> C  -20.329   28.222   47.341
| 36> C  -20.110   27.022   48.296
| 37> O  -20.473   25.807   47.535
| 38> H  -20.833   25.428   45.533
| 39> H  -19.344   27.382   45.576
| 40> H  -20.898   28.157   45.201
| 41> H  -19.543   28.978   47.434
| 42> H  -21.289   28.710   47.548
| 43> H  -20.733   27.082   49.195
| 44> H  -19.064   26.913   48.597
| 45> C  -23.309   26.834   45.072
| 46> H  -23.145   26.077   44.295
| 47> H  -24.389   26.922   45.243
| 48> O  -22.586   26.394   46.375
| 49> C  -22.802   28.201   44.537
| 50> C  -23.614   28.658   43.320
| 51> C  -24.892   29.219   43.988
| 52> C  -24.357   29.845   45.299
| 53> O  -23.022   29.255   45.533
| 54> H  -21.725   28.142   44.365
| 55> O  -22.854   29.781   42.562
| 56> H  -23.824   27.847   42.614
| 57> H  -25.415   29.947   43.360
| 58> H  -25.591   28.403   44.207
| 59> H  -25.000   29.629   46.160
| 60> H  -24.222   30.928   45.220
| 61> H  -22.633   30.604   43.250
| 62> *
| 63>
| 64>                          ****END OF INPUT****
 Total Charge           Charge          ....    0
 Multiplicity           Mult            ....    1
 Number of Electrons    NEL             ....  102
FINAL SINGLE POINT ENERGY      -652.800542329752
FINAL SINGLE POINT ENERGY      -652.829485246783
FINAL SINGLE POINT ENERGY      -652.847873743102
FINAL SINGLE POINT ENERGY      -652.851028705928
FINAL SINGLE POINT ENERGY      -652.851577394299
FINAL SINGLE POINT ENERGY      -652.851676461188
FINAL SINGLE POINT ENERGY      -652.851683222638
                    ***********************HURRAY********************

CARTESIAN COORDINATES (ANGSTROEM)
---------------------------------
  C    -20.928792   26.252408   46.173810
  C    -20.083464   27.518684   46.031759
  C    -20.240927   28.174473   47.430953
  C    -20.304486   26.949953   48.365474
  O    -20.635759   25.793847   47.498793
  H    -20.679701   25.446951   45.474033
  H    -19.043293   27.209283   45.866590
  H    -20.367226   28.187528   45.223465
  H    -19.410908   28.844847   47.672667
  H    -21.174883   28.742493   47.455079
  H    -21.074279   27.035759   49.136815
  H    -19.342785   26.722058   48.835677
  C    -23.145847   26.938272   45.044790
  H    -23.091006   26.193553   44.229653
  H    -24.169177   26.935276   45.429239
  O    -22.376173   26.467724   46.179576
  C    -22.825506   28.305308   44.430382
  C    -23.794992   28.665636   43.292610
  C    -25.021007   29.209249   44.079446
  C    -24.365945   29.924157   45.288977
  O    -22.982968   29.399696   45.391952
  H    -21.802506   28.348338   44.057383
  O    -23.217331   29.675797   42.422316
  H    -24.038454   27.829786   42.635759
  H    -25.611376   29.882967   43.453065
  H    -25.665629   28.384641   44.401436
  H    -24.889341   29.729883   46.229802
  H    -24.289780   31.007162   45.148404
  H    -22.831458   30.391271   42.971094

 Multiplicity           Mult            ....    1
 Number of Electrons    NEL             ....  102
 Basis Dimension        Dim             ....  149

ORBITAL ENERGIES
----------------

  NO   OCC          E(Eh)            E(eV)
   0   2.0000     -19.151303      -521.1335
   1   2.0000     -19.147059      -521.0180
   2   2.0000     -19.134105      -520.6655
   3   2.0000     -19.133660      -520.6534
   4   2.0000     -10.277076      -279.6534
   5   2.0000     -10.250603      -278.9331
   6   2.0000     -10.241000      -278.6718
   7   2.0000     -10.238880      -278.6141
   8   2.0000     -10.235846      -278.5315
   9   2.0000     -10.217575      -278.0344
  10   2.0000     -10.197392      -277.4851
  11   2.0000     -10.181368      -277.0491
  12   2.0000     -10.176439      -276.9150
  13   2.0000      -1.049133       -28.5484
  14   2.0000      -1.042974       -28.3808
  15   2.0000      -1.014348       -27.6018
  16   2.0000      -0.985383       -26.8136
  17   2.0000      -0.792040       -21.5525
  18   2.0000      -0.778300       -21.1786
  19   2.0000      -0.772703       -21.0263
  20   2.0000      -0.733250       -19.9527
  21   2.0000      -0.677459       -18.4346
  22   2.0000      -0.612994       -16.6804
  23   2.0000      -0.605917       -16.4878
  24   2.0000      -0.592788       -16.1306
  25   2.0000      -0.575192       -15.6518
  26   2.0000      -0.528181       -14.3725
  27   2.0000      -0.513497       -13.9730
  28   2.0000      -0.494570       -13.4579
  29   2.0000      -0.491179       -13.3656
  30   2.0000      -0.473389       -12.8816
  31   2.0000      -0.456037       -12.4094
  32   2.0000      -0.451700       -12.2914
  33   2.0000      -0.449746       -12.2382
  34   2.0000      -0.425839       -11.5877
  35   2.0000      -0.413840       -11.2612
  36   2.0000      -0.404757       -11.0140
  37   2.0000      -0.399846       -10.8804
  38   2.0000      -0.378986       -10.3127
  39   2.0000      -0.373163       -10.1543
  40   2.0000      -0.365467        -9.9449
  41   2.0000      -0.348838        -9.4924
  42   2.0000      -0.343961        -9.3597
  43   2.0000      -0.339728        -9.2445
  44   2.0000      -0.316180        -8.6037
  45   2.0000      -0.305822        -8.3218
  46   2.0000      -0.291512        -7.9324
  47   2.0000      -0.279408        -7.6031
  48   2.0000      -0.263969        -7.1830
  49   2.0000      -0.251971        -6.8565
  50   2.0000      -0.240814        -6.5529
  51   0.0000       0.057197         1.5564
  52   0.0000       0.083107         2.2615
  53   0.0000       0.084970         2.3121
  54   0.0000       0.086880         2.3641
  55   0.0000       0.101620         2.7652

MULLIKEN ATOMIC CHARGES
-----------------------
   0 C :    0.301884
   1 C :   -0.276711
   2 C :   -0.306855
   3 C :    0.000340
   4 O :   -0.498320
   5 H :    0.136619
   6 H :    0.142634
   7 H :    0.147332
   8 H :    0.136035
   9 H :    0.184290
  10 H :    0.152339
  11 H :    0.138358
  12 C :    0.006695
  13 H :    0.119358
  14 H :    0.154376
  15 O :   -0.511225
  16 C :    0.044907
  17 C :    0.078192
  18 C :   -0.305122
  19 C :   -0.030508
  20 O :   -0.520291
  21 H :    0.162579
  22 O :   -0.600428
  23 H :    0.156625
  24 H :    0.165598
  25 H :    0.152049
  26 H :    0.155167
  27 H :    0.149618
  28 H :    0.364464
Sum of atomic charges:   -0.0000000

LOEWDIN ATOMIC CHARGES
----------------------
   0 C :    0.186600
   1 C :   -0.231910
   2 C :   -0.219190
   3 C :   -0.025714
   4 O :   -0.301713
   5 H :    0.094924
   6 H :    0.113831
   7 H :    0.115688
   8 H :    0.112048
   9 H :    0.128711
  10 H :    0.108345
  11 H :    0.100230
  12 C :   -0.039984
  13 H :    0.090706
  14 H :    0.115716
  15 O :   -0.331081
  16 C :   -0.001803
  17 C :    0.037009
  18 C :   -0.242374
  19 C :   -0.037628
  20 O :   -0.329717
  21 H :    0.111917
  22 O :   -0.412698
  23 H :    0.117562
  24 H :    0.127966
  25 H :    0.116438
  26 H :    0.108902
  27 H :    0.103917
  28 H :    0.283302

  Mayer bond orders larger than 0.100000
B(  0-C ,  1-C ) :   0.9286 B(  0-C ,  4-O ) :   0.9410 B(  0-C ,  5-H ) :   0.9208
B(  0-C , 15-O ) :   0.8334 B(  1-C ,  2-C ) :   0.9518 B(  1-C ,  6-H ) :   0.9327
B(  1-C ,  7-H ) :   0.9205 B(  2-C ,  3-C ) :   0.9545 B(  2-C ,  8-H ) :   0.9451
B(  2-C ,  9-H ) :   0.9311 B(  3-C ,  4-O ) :   0.8309 B(  3-C , 10-H ) :   0.9355
B(  3-C , 11-H ) :   0.9399 B( 12-C , 13-H ) :   0.9090 B( 12-C , 14-H ) :   0.9369
B( 12-C , 15-O ) :   0.8787 B( 12-C , 16-C ) :   0.8746 B( 16-C , 17-C ) :   0.8893
B( 16-C , 20-O ) :   0.8535 B( 16-C , 21-H ) :   0.9100 B( 17-C , 18-C ) :   0.9133
B( 17-C , 22-O ) :   0.8942 B( 17-C , 23-H ) :   0.9312 B( 18-C , 19-C ) :   0.9398
B( 18-C , 24-H ) :   0.9369 B( 18-C , 25-H ) :   0.9324 B( 19-C , 20-O ) :   0.8426
B( 19-C , 26-H ) :   0.9337 B( 19-C , 27-H ) :   0.9367 B( 22-O , 28-H ) :   0.7943

FINAL SINGLE POINT ENERGY      -652.851684569217

DIPOLE MOMENT
-------------
                                X             Y             Z
Electronic contribution:      0.24054      -2.51052      -0.54968
Nuclear contribution   :     -0.55859       3.37851       0.21746
                        -----------------------------------------
Total Dipole Moment    :     -0.31805       0.86799      -0.33222
                        -----------------------------------------
Magnitude (a.u.)       :      0.98231
Magnitude (Debye)      :      2.49683

Rotational constants in cm-1:     0.057131     0.013622     0.013319
Rotational constants in MHz :  1712.734500   408.370493   399.296644

                             ****ORCA TERMINATED NORMALLY****
TOTAL RUN TIME: 0 days 2 hours 14 minutes 33 seconds 731 msec
