                         Program Version 4.2.0 -  RELEASE  -
|  1> # Test redundant internal optimization
|  2> #
|  3> ! RKS B3LYP  Opt TightSCF SmallPrint
|  4>
|  5> %basis
|  6>         Basis "6-31G"
|  7> end
|  8>
|  9> %geom
| 10> Constraints
| 11> { D 4  0  15  12  255.0   C } # D for Dihedral angle
| 12> { D 0  15  12  16  165.0   C } # D for Dihedral angle
| 13> { D 0  4  3  2   C } # D for Dihedral angle
| 14> { D 4  3  2  1   C } # D for Dihedral angle
| 15> { D 3  2  1  0   C } # D for Dihedral angle
| 16> { D 2  1  0  4   C } # D for Dihedral angle
| 17> { D 1  0  4  3   C } # D for Dihedral angle
| 18> { D 16  20  19  18   C } # D for Dihedral angle
| 19> { D 20  19  18  17   C } # D for Dihedral angle
| 20> { D 19  18  17  16   C } # D for Dihedral angle
| 21> { D 18  17  16  20   C } # D for Dihedral angle
| 22> { D 17  16  20  19   C } # D for Dihedral angle
| 23> { D 15  12  16  20   C } # D for Dihedral angle
| 24> end
| 25> end
| 26>
| 27>
| 28> #%pal
| 29> #nprocs 8
| 30> #end
| 31>
| 32> * xyz 0 1
| 33> C  -21.048   26.222   46.251
| 34> C  -20.361   27.558   45.944
| 35> C  -20.329   28.222   47.341
| 36> C  -20.110   27.022   48.296
| 37> O  -20.473   25.807   47.535
| 38> H  -20.833   25.428   45.533
| 39> H  -19.344   27.382   45.576
| 40> H  -20.898   28.157   45.201
| 41> H  -19.543   28.978   47.434
| 42> H  -21.289   28.710   47.548
| 43> H  -20.733   27.082   49.195
| 44> H  -19.064   26.913   48.597
| 45> C  -23.431   25.260   45.734
| 46> H  -23.410   25.365   44.642
| 47> H  -23.014   24.277   45.991
| 48> O  -22.586   26.394   46.375
| 49> C  -24.914   25.280   46.197
| 50> C  -25.627   26.553   45.728
| 51> C  -25.933   26.214   44.249
| 52> C  -26.227   24.693   44.291
| 53> O  -25.664   24.191   45.563
| 54> H  -24.954   25.110   47.275
| 55> H  -26.556   26.694   46.292
| 56> O  -24.759   27.832   45.885
| 57> H  -26.771   26.790   43.846
| 58> H  -25.054   26.421   43.626
| 59> H  -25.767   24.154   43.457
| 60> H  -27.299   24.476   44.305
| 61> H  -23.824   27.713   45.328
| 62> *
| 63>
| 64>                          ****END OF INPUT****
 Total Charge           Charge          ....    0
 Multiplicity           Mult            ....    1
 Number of Electrons    NEL             ....  102
FINAL SINGLE POINT ENERGY      -652.832096305729
FINAL SINGLE POINT ENERGY      -652.856656986603
FINAL SINGLE POINT ENERGY      -652.863026317121
FINAL SINGLE POINT ENERGY      -652.865405080763
FINAL SINGLE POINT ENERGY      -652.866827761029
FINAL SINGLE POINT ENERGY      -652.867671000320
FINAL SINGLE POINT ENERGY      -652.867984883419
FINAL SINGLE POINT ENERGY      -652.868052792109
FINAL SINGLE POINT ENERGY      -652.868061465091
                    ***********************HURRAY********************

CARTESIAN COORDINATES (ANGSTROEM)
---------------------------------
  C    -21.065839   26.136363   46.200615
  C    -20.461407   27.506396   45.896976
  C    -20.540308   28.203164   47.276403
  C    -20.284935   27.044880   48.264537
  O    -20.534841   25.797059   47.493750
  H    -20.793954   25.328897   45.516644
  H    -19.418918   27.377752   45.584025
  H    -21.002103   28.037580   45.110421
  H    -19.807720   29.008935   47.380321
  H    -21.537956   28.627654   47.424926
  H    -20.952399   27.060146   49.129285
  H    -19.247350   26.995527   48.606560
  C    -23.307468   25.178937   45.669538
  H    -23.249529   25.223019   44.573341
  H    -22.922267   24.210480   46.006790
  O    -22.514756   26.269572   46.248745
  C    -24.748555   25.345800   46.161655
  C    -25.449576   26.637231   45.707688
  C    -25.863934   26.275808   44.250546
  C    -26.203905   24.774108   44.346607
  O    -25.570822   24.274949   45.604397
  H    -24.764956   25.229028   47.248711
  H    -26.350000   26.776477   46.316968
  O    -24.669808   27.845816   45.800870
  H    -26.706357   26.881879   43.906429
  H    -25.017241   26.467401   43.582558
  H    -25.822028   24.186935   43.505646
  H    -27.277563   24.590090   44.446244
  H    -23.728504   27.606116   45.973802

 Multiplicity           Mult            ....    1
 Number of Electrons    NEL             ....  102
 Basis Dimension        Dim             ....  149

ORBITAL ENERGIES
----------------

  NO   OCC          E(Eh)            E(eV)
   0   2.0000     -19.164666      -521.4971
   1   2.0000     -19.148210      -521.0493
   2   2.0000     -19.140392      -520.8365
   3   2.0000     -19.113189      -520.0963
   4   2.0000     -10.292545      -280.0744
   5   2.0000     -10.240303      -278.6528
   6   2.0000     -10.234426      -278.4929
   7   2.0000     -10.231520      -278.4138
   8   2.0000     -10.230486      -278.3857
   9   2.0000     -10.226878      -278.2875
  10   2.0000     -10.194919      -277.4178
  11   2.0000     -10.192747      -277.3587
  12   2.0000     -10.179856      -277.0080
  13   2.0000      -1.065599       -28.9964
  14   2.0000      -1.025847       -27.9147
  15   2.0000      -1.008164       -27.4335
  16   2.0000      -0.992417       -27.0050
  17   2.0000      -0.796522       -21.6745
  18   2.0000      -0.773525       -21.0487
  19   2.0000      -0.768101       -20.9011
  20   2.0000      -0.735647       -20.0180
  21   2.0000      -0.679208       -18.4822
  22   2.0000      -0.606741       -16.5103
  23   2.0000      -0.602787       -16.4027
  24   2.0000      -0.593745       -16.1566
  25   2.0000      -0.582409       -15.8482
  26   2.0000      -0.528627       -14.3847
  27   2.0000      -0.523728       -14.2514
  28   2.0000      -0.500465       -13.6183
  29   2.0000      -0.486606       -13.2412
  30   2.0000      -0.473695       -12.8899
  31   2.0000      -0.461136       -12.5482
  32   2.0000      -0.440859       -11.9964
  33   2.0000      -0.436189       -11.8693
  34   2.0000      -0.426734       -11.6120
  35   2.0000      -0.423054       -11.5119
  36   2.0000      -0.406941       -11.0734
  37   2.0000      -0.388241       -10.5646
  38   2.0000      -0.382415       -10.4060
  39   2.0000      -0.369133       -10.0446
  40   2.0000      -0.364220        -9.9109
  41   2.0000      -0.358640        -9.7591
  42   2.0000      -0.347759        -9.4630
  43   2.0000      -0.344582        -9.3765
  44   2.0000      -0.325552        -8.8587
  45   2.0000      -0.318035        -8.6542
  46   2.0000      -0.291532        -7.9330
  47   2.0000      -0.279073        -7.5940
  48   2.0000      -0.260357        -7.0847
  49   2.0000      -0.249897        -6.8000
  50   2.0000      -0.242449        -6.5974
  51   0.0000       0.054015         1.4698
  52   0.0000       0.082582         2.2472
  53   0.0000       0.091547         2.4911
  54   0.0000       0.096925         2.6375
  55   0.0000       0.101755         2.7689

MULLIKEN ATOMIC CHARGES
-----------------------
   0 C :    0.296544
   1 C :   -0.263201
   2 C :   -0.306522
   3 C :   -0.003857
   4 O :   -0.500559
   5 H :    0.149885
   6 H :    0.151518
   7 H :    0.153212
   8 H :    0.147897
   9 H :    0.167999
  10 H :    0.156175
  11 H :    0.146366
  12 C :   -0.018074
  13 H :    0.141423
  14 H :    0.167262
  15 O :   -0.560670
  16 C :    0.047689
  17 C :    0.115656
  18 C :   -0.305499
  19 C :   -0.021131
  20 O :   -0.519888
  21 H :    0.168124
  22 H :    0.148430
  23 O :   -0.644285
  24 H :    0.153048
  25 H :    0.144703
  26 H :    0.141152
  27 H :    0.150607
  28 H :    0.395997
Sum of atomic charges:   -0.0000000

LOEWDIN ATOMIC CHARGES
----------------------
   0 C :    0.178601
   1 C :   -0.219190
   2 C :   -0.216895
   3 C :   -0.026249
   4 O :   -0.316030
   5 H :    0.104758
   6 H :    0.117319
   7 H :    0.121210
   8 H :    0.117392
   9 H :    0.120499
  10 H :    0.110307
  11 H :    0.105069
  12 C :   -0.043452
  13 H :    0.096994
  14 H :    0.116322
  15 O :   -0.342758
  16 C :    0.018221
  17 C :    0.041547
  18 C :   -0.237985
  19 C :   -0.033092
  20 O :   -0.322907
  21 H :    0.119220
  22 H :    0.105472
  23 O :   -0.438340
  24 H :    0.121877
  25 H :    0.110413
  26 H :    0.101505
  27 H :    0.106576
  28 H :    0.283596

  Mayer bond orders larger than 0.100000
B(  0-C ,  1-C ) :   0.9472 B(  0-C ,  4-O ) :   0.9406 B(  0-C ,  5-H ) :   0.9212
B(  0-C , 15-O ) :   0.8083 B(  1-C ,  2-C ) :   0.9548 B(  1-C ,  6-H ) :   0.9373
B(  1-C ,  7-H ) :   0.9365 B(  2-C ,  3-C ) :   0.9527 B(  2-C ,  8-H ) :   0.9446
B(  2-C ,  9-H ) :   0.9426 B(  3-C ,  4-O ) :   0.8310 B(  3-C , 10-H ) :   0.9345
B(  3-C , 11-H ) :   0.9397 B( 12-C , 13-H ) :   0.9213 B( 12-C , 14-H ) :   0.9219
B( 12-C , 15-O ) :   0.7845 B( 12-C , 16-C ) :   0.9086 B( 16-C , 17-C ) :   0.9134
B( 16-C , 20-O ) :   0.8561 B( 16-C , 21-H ) :   0.9275 B( 17-C , 18-C ) :   0.9019
B( 17-C , 22-H ) :   0.9292 B( 17-C , 23-O ) :   0.9353 B( 18-C , 19-C ) :   0.9401
B( 18-C , 24-H ) :   0.9441 B( 18-C , 25-H ) :   0.9434 B( 19-C , 20-O ) :   0.8332
B( 19-C , 26-H ) :   0.9342 B( 19-C , 27-H ) :   0.9383 B( 23-O , 28-H ) :   0.7171

FINAL SINGLE POINT ENERGY      -652.868063501295

DIPOLE MOMENT
-------------
                                X             Y             Z
Electronic contribution:     -1.17290      -3.01720       2.07299
Nuclear contribution   :      2.01057       3.30258      -2.68330
                        -----------------------------------------
Total Dipole Moment    :      0.83767       0.28538      -0.61031
                        -----------------------------------------
Magnitude (a.u.)       :      1.07499
Magnitude (Debye)      :      2.73241

Rotational constants in cm-1:     0.060418     0.013158     0.012092
Rotational constants in MHz :  1811.280393   394.476625   362.514566

                             ****ORCA TERMINATED NORMALLY****
TOTAL RUN TIME: 0 days 0 hours 29 minutes 8 seconds 132 msec
