                         Program Version 4.2.1 -  RELEASE  -
|  1> # Test redundant internal optimization
|  2> #
|  3> ! RKS B3LYP  Opt TightSCF SmallPrint
|  4>
|  5> %basis
|  6>         Basis "6-31G"
|  7> end
|  8>
|  9> %geom
| 10> Constraints
| 11> { D 4  0  19  14  150.0   C } # D for Dihedral angle
| 12> { D 0  19  14  12  30.0   C } # D for Dihedral angle
| 13> { D 0  4  3  2   C } # D for Dihedral angle
| 14> { D 4  3  2  1   C } # D for Dihedral angle
| 15> { D 3  2  1  0   C } # D for Dihedral angle
| 16> { D 2  1  0  4   C } # D for Dihedral angle
| 17> { D 1  0  4  3   C } # D for Dihedral angle
| 18> { D 14  15  16  17   C } # D for Dihedral angle
| 19> { D 15  16  17  12   C } # D for Dihedral angle
| 20> { D 16  17  12  14   C } # D for Dihedral angle
| 21> { D 17  12  14  15   C } # D for Dihedral angle
| 22> { D 12  14  15  16   C } # D for Dihedral angle
| 23> end
| 24> end
| 25>
| 26>
| 27> #%pal
| 28> #nprocs 8
| 29> #end
| 30>
| 31> * xyz 0 1
| 32> C  -21.048   26.222   46.251
| 33> C  -20.361   27.558   45.944
| 34> C  -20.329   28.222   47.341
| 35> C  -20.110   27.022   48.296
| 36> O  -20.473   25.807   47.535
| 37> H  -20.833   25.428   45.533
| 38> H  -19.344   27.382   45.576
| 39> H  -20.898   28.157   45.201
| 40> H  -19.543   28.978   47.434
| 41> H  -21.289   28.710   47.548
| 42> H  -20.733   27.082   49.195
| 43> H  -19.064   26.913   48.597
| 44> C  -22.195   27.464   44.204
| 45> H  -22.414   28.391   43.650
| 46> C  -23.030   27.370   45.486
| 47> C  -24.398   26.902   44.936
| 48> C  -24.006   25.970   43.762
| 49> O  -22.603   26.292   43.421
| 50> H  -21.118   27.386   44.359
| 51> O  -22.472   26.381   46.366
| 52> H  -23.093   28.319   46.029
| 53> H  -25.007   26.391   45.689
| 54> H  -24.972   27.762   44.570
| 55> H  -24.634   26.120   42.878
| 56> H  -24.034   24.912   44.041
| 57> *
| 58>
| 59>                          ****END OF INPUT****
 Total Charge           Charge          ....    0
 Multiplicity           Mult            ....    1
 Number of Electrons    NEL             ....   86
FINAL SINGLE POINT ENERGY      -538.352437845401
FINAL SINGLE POINT ENERGY      -538.411913982366
FINAL SINGLE POINT ENERGY      -538.417674220408
FINAL SINGLE POINT ENERGY      -538.418045191327
FINAL SINGLE POINT ENERGY      -538.418155365774
FINAL SINGLE POINT ENERGY      -538.418184518077
FINAL SINGLE POINT ENERGY      -538.418186492691
                    ***********************HURRAY********************

CARTESIAN COORDINATES (ANGSTROEM)
---------------------------------
  C    -20.922247   26.227926   46.279763
  C    -19.983987   27.416256   46.049127
  C    -20.111492   28.201722   47.387442
  C    -20.276272   27.061579   48.416732
  O    -20.677569   25.867083   47.647061
  H    -20.719001   25.348729   45.666533
  H    -18.966159   27.023513   45.938008
  H    -20.198101   28.031844   45.179522
  H    -19.236341   28.826352   47.588798
  H    -20.996831   28.846098   47.368068
  H    -21.042866   27.269712   49.167968
  H    -19.337236   26.811756   48.920431
  C    -22.510293   27.726510   43.948645
  H    -23.025119   28.604568   43.529015
  C    -23.078932   27.446720   45.340494
  C    -24.404588   26.740771   44.996395
  C    -24.062392   25.926722   43.726908
  O    -22.820137   26.518211   43.175861
  H    -21.438638   27.878934   43.867557
  O    -22.353517   26.520500   46.210045
  H    -23.238198   28.379795   45.897796
  H    -24.726343   26.119173   45.833971
  H    -25.179903   27.487845   44.789639
  H    -24.849561   25.979801   42.966374
  H    -23.845275   24.878877   43.949844

 Multiplicity           Mult            ....    1
 Number of Electrons    NEL             ....   86
 Basis Dimension        Dim             ....  127

ORBITAL ENERGIES
----------------

  NO   OCC          E(Eh)            E(eV)
   0   2.0000     -19.136986      -520.7439
   1   2.0000     -19.132912      -520.6330
   2   2.0000     -19.130720      -520.5734
   3   2.0000     -10.280116      -279.7362
   4   2.0000     -10.244480      -278.7665
   5   2.0000     -10.228866      -278.3416
   6   2.0000     -10.224776      -278.2303
   7   2.0000     -10.221133      -278.1312
   8   2.0000     -10.191062      -277.3129
   9   2.0000     -10.190173      -277.2887
  10   2.0000     -10.183633      -277.1107
  11   2.0000      -1.048674       -28.5359
  12   2.0000      -1.016269       -27.6541
  13   2.0000      -0.981681       -26.7129
  14   2.0000      -0.789169       -21.4744
  15   2.0000      -0.783157       -21.3108
  16   2.0000      -0.739758       -20.1299
  17   2.0000      -0.728604       -19.8263
  18   2.0000      -0.621084       -16.9005
  19   2.0000      -0.604665       -16.4538
  20   2.0000      -0.595540       -16.2055
  21   2.0000      -0.565803       -15.3963
  22   2.0000      -0.517016       -14.0687
  23   2.0000      -0.498346       -13.5607
  24   2.0000      -0.495037       -13.4706
  25   2.0000      -0.487623       -13.2689
  26   2.0000      -0.451404       -12.2833
  27   2.0000      -0.449250       -12.2247
  28   2.0000      -0.433516       -11.7966
  29   2.0000      -0.412893       -11.2354
  30   2.0000      -0.408763       -11.1230
  31   2.0000      -0.386482       -10.5167
  32   2.0000      -0.371387       -10.1060
  33   2.0000      -0.368561       -10.0291
  34   2.0000      -0.364823        -9.9273
  35   2.0000      -0.353589        -9.6216
  36   2.0000      -0.350023        -9.5246
  37   2.0000      -0.315231        -8.5779
  38   2.0000      -0.306406        -8.3377
  39   2.0000      -0.284697        -7.7470
  40   2.0000      -0.260363        -7.0848
  41   2.0000      -0.245357        -6.6765
  42   2.0000      -0.239285        -6.5113
  43   0.0000       0.071602         1.9484
  44   0.0000       0.090563         2.4644
  45   0.0000       0.096561         2.6275
  46   0.0000       0.105111         2.8602
  47   0.0000       0.112982         3.0744

MULLIKEN ATOMIC CHARGES
-----------------------
   0 C :    0.322867
   1 C :   -0.289438
   2 C :   -0.304307
   3 C :    0.001942
   4 O :   -0.495115
   5 H :    0.158939
   6 H :    0.152397
   7 H :    0.138819
   8 H :    0.143659
   9 H :    0.150960
  10 H :    0.150363
  11 H :    0.143472
  12 C :   -0.027409
  13 H :    0.128605
  14 C :    0.095203
  15 C :   -0.285459
  16 C :   -0.009986
  17 O :   -0.525141
  18 H :    0.157566
  19 O :   -0.543890
  20 H :    0.128095
  21 H :    0.174634
  22 H :    0.136351
  23 H :    0.138786
  24 H :    0.158085
Sum of atomic charges:   -0.0000000

LOEWDIN ATOMIC CHARGES
----------------------
   0 C :    0.192974
   1 C :   -0.233095
   2 C :   -0.218020
   3 C :   -0.027500
   4 O :   -0.302938
   5 H :    0.107348
   6 H :    0.119778
   7 H :    0.111821
   8 H :    0.115168
   9 H :    0.111171
  10 H :    0.107078
  11 H :    0.102839
  12 C :   -0.053667
  13 H :    0.095871
  14 C :    0.045664
  15 C :   -0.223251
  16 C :   -0.030761
  17 O :   -0.335439
  18 H :    0.112656
  19 O :   -0.345898
  20 H :    0.095149
  21 H :    0.134158
  22 H :    0.109161
  23 H :    0.099729
  24 H :    0.110006

  Mayer bond orders larger than 0.100000
B(  0-C ,  1-C ) :   0.9294 B(  0-C ,  4-O ) :   0.9253 B(  0-C ,  5-H ) :   0.9247
B(  0-C , 19-O ) :   0.8347 B(  1-C ,  2-C ) :   0.9475 B(  1-C ,  6-H ) :   0.9334
B(  1-C ,  7-H ) :   0.9210 B(  2-C ,  3-C ) :   0.9537 B(  2-C ,  8-H ) :   0.9450
B(  2-C ,  9-H ) :   0.9463 B(  3-C ,  4-O ) :   0.8388 B(  3-C , 10-H ) :   0.9348
B(  3-C , 11-H ) :   0.9392 B( 12-C , 13-H ) :   0.9082 B( 12-C , 14-C ) :   0.9141
B( 12-C , 17-O ) :   0.8689 B( 12-C , 18-H ) :   0.9191 B( 14-C , 15-C ) :   0.9450
B( 14-C , 19-O ) :   0.8435 B( 14-C , 20-H ) :   0.9214 B( 15-C , 16-C ) :   0.9473
B( 15-C , 21-H ) :   0.9336 B( 15-C , 22-H ) :   0.9395 B( 16-C , 17-O ) :   0.8488
B( 16-C , 23-H ) :   0.9336 B( 16-C , 24-H ) :   0.9361

FINAL SINGLE POINT ENERGY      -538.418186475200

DIPOLE MOMENT
-------------
                                X             Y             Z
Electronic contribution:     -0.12609      -3.72843      -0.18646
Nuclear contribution   :      0.17913       4.99018       0.28015
                        -----------------------------------------
Total Dipole Moment    :      0.05304       1.26176       0.09369
                        -----------------------------------------
Magnitude (a.u.)       :      1.26634
Magnitude (Debye)      :      3.21879

Rotational constants in cm-1:     0.083589     0.021327     0.020131
Rotational constants in MHz :  2505.921696   639.373787   603.511531

                             ****ORCA TERMINATED NORMALLY****
TOTAL RUN TIME: 0 days 0 hours 8 minutes 5 seconds 228 msec
