                         Program Version 4.2.0 -  RELEASE  -
|  1> # Test redundant internal optimization
|  2> #
|  3> ! RKS B3LYP  Opt TightSCF SmallPrint
|  4>
|  5> %basis
|  6>         Basis "6-31G"
|  7> end
|  8>
|  9> %geom
| 10> Constraints
| 11> { D 4  0  15  12  240.0   C } # D for Dihedral angle
| 12> { D 0  15  12  16  165.0   C } # D for Dihedral angle
| 13> { D 0  4  3  2   C } # D for Dihedral angle
| 14> { D 4  3  2  1   C } # D for Dihedral angle
| 15> { D 3  2  1  0   C } # D for Dihedral angle
| 16> { D 2  1  0  4   C } # D for Dihedral angle
| 17> { D 1  0  4  3   C } # D for Dihedral angle
| 18> { D 16  20  19  18   C } # D for Dihedral angle
| 19> { D 20  19  18  17   C } # D for Dihedral angle
| 20> { D 19  18  17  16   C } # D for Dihedral angle
| 21> { D 18  17  16  20   C } # D for Dihedral angle
| 22> { D 17  16  20  19   C } # D for Dihedral angle
| 23> { D 15  12  16  20   C } # D for Dihedral angle
| 24> end
| 25> end
| 26>
| 27>
| 28> #%pal
| 29> #nprocs 8
| 30> #end
| 31>
| 32> * xyz 0 1
| 33> C  -21.048   26.222   46.251
| 34> C  -20.361   27.558   45.944
| 35> C  -20.329   28.222   47.341
| 36> C  -20.110   27.022   48.296
| 37> O  -20.473   25.807   47.535
| 38> H  -20.833   25.428   45.533
| 39> H  -19.344   27.382   45.576
| 40> H  -20.898   28.157   45.201
| 41> H  -19.543   28.978   47.434
| 42> H  -21.289   28.710   47.548
| 43> H  -20.733   27.082   49.195
| 44> H  -19.064   26.913   48.597
| 45> C  -23.430   25.483   45.442
| 46> H  -23.372   25.864   44.415
| 47> H  -23.038   24.457   45.450
| 48> O  -22.586   26.394   46.375
| 49> C  -24.926   25.420   45.857
| 50> C  -25.081   24.979   47.317
| 51> C  -24.767   26.291   48.075
| 52> C  -25.354   27.383   47.147
| 53> O  -25.526   26.757   45.818
| 54> H  -25.470   24.804   45.139
| 55> O  -26.542   24.528   47.585
| 56> H  -24.410   24.158   47.593
| 57> H  -25.204   26.317   49.079
| 58> H  -23.682   26.415   48.180
| 59> H  -24.694   28.253   47.052
| 60> H  -26.341   27.722   47.473
| 61> H  -27.232   25.335   47.316
| 62> *
| 63>
| 64>                          ****END OF INPUT****
 Total Charge           Charge          ....    0
 Multiplicity           Mult            ....    1
 Number of Electrons    NEL             ....  102
FINAL SINGLE POINT ENERGY      -652.836734480291
FINAL SINGLE POINT ENERGY      -652.859126398429
FINAL SINGLE POINT ENERGY      -652.862930672392
FINAL SINGLE POINT ENERGY      -652.863992026997
FINAL SINGLE POINT ENERGY      -652.864105919287
FINAL SINGLE POINT ENERGY      -652.864119427704
                    ***********************HURRAY********************

CARTESIAN COORDINATES (ANGSTROEM)
---------------------------------
  C    -21.082219   26.174535   46.203949
  C    -20.426042   27.521761   45.903286
  C    -20.439699   28.199929   47.293600
  C    -20.210310   27.016557   48.259599
  O    -20.532810   25.791897   47.481481
  H    -20.846287   25.369254   45.502106
  H    -19.398250   27.357548   45.558762
  H    -20.969716   28.086251   45.142387
  H    -19.672581   28.973720   47.392995
  H    -21.417419   28.659188   47.468581
  H    -20.852916   27.050524   49.142937
  H    -19.167206   26.920898   48.575013
  C    -23.338054   25.489110   45.455381
  H    -23.300680   25.855301   44.420670
  H    -22.961303   24.454762   45.476712
  O    -22.519206   26.342801   46.303774
  C    -24.791341   25.504383   45.919388
  C    -25.067375   25.024274   47.351874
  C    -24.791811   26.310612   48.174683
  C    -25.287528   27.438170   47.236327
  O    -25.364394   26.850321   45.876845
  H    -25.364252   24.897466   45.207994
  O    -26.443538   24.565334   47.478483
  H    -24.453453   24.176814   47.658175
  H    -25.327697   26.282437   49.127318
  H    -23.719753   26.399150   48.353520
  H    -24.601346   28.289194   47.208910
  H    -26.291352   27.794764   47.489157
  H    -27.041463   25.244045   47.100095

 Multiplicity           Mult            ....    1
 Number of Electrons    NEL             ....  102
 Basis Dimension        Dim             ....  149

ORBITAL ENERGIES
----------------

  NO   OCC          E(Eh)            E(eV)
   0   2.0000     -19.147359      -521.0261
   1   2.0000     -19.143002      -520.9076
   2   2.0000     -19.136321      -520.7258
   3   2.0000     -19.132264      -520.6154
   4   2.0000     -10.284076      -279.8439
   5   2.0000     -10.236223      -278.5418
   6   2.0000     -10.233781      -278.4753
   7   2.0000     -10.233168      -278.4586
   8   2.0000     -10.228322      -278.3268
   9   2.0000     -10.221045      -278.1288
  10   2.0000     -10.188997      -277.2567
  11   2.0000     -10.188247      -277.2363
  12   2.0000     -10.172871      -276.8179
  13   2.0000      -1.057029       -28.7632
  14   2.0000      -1.030390       -28.0383
  15   2.0000      -1.002855       -27.2891
  16   2.0000      -0.995047       -27.0766
  17   2.0000      -0.791015       -21.5246
  18   2.0000      -0.775444       -21.1009
  19   2.0000      -0.762483       -20.7482
  20   2.0000      -0.732931       -19.9441
  21   2.0000      -0.674017       -18.3409
  22   2.0000      -0.601950       -16.3799
  23   2.0000      -0.597756       -16.2658
  24   2.0000      -0.593629       -16.1535
  25   2.0000      -0.580328       -15.7915
  26   2.0000      -0.527077       -14.3425
  27   2.0000      -0.503039       -13.6884
  28   2.0000      -0.499109       -13.5814
  29   2.0000      -0.485843       -13.2205
  30   2.0000      -0.475157       -12.9297
  31   2.0000      -0.456334       -12.4175
  32   2.0000      -0.445701       -12.1282
  33   2.0000      -0.440584       -11.9889
  34   2.0000      -0.422946       -11.5090
  35   2.0000      -0.411472       -11.1967
  36   2.0000      -0.403973       -10.9927
  37   2.0000      -0.385155       -10.4806
  38   2.0000      -0.372793       -10.1442
  39   2.0000      -0.367185        -9.9916
  40   2.0000      -0.359541        -9.7836
  41   2.0000      -0.356656        -9.7051
  42   2.0000      -0.351040        -9.5523
  43   2.0000      -0.325861        -8.8671
  44   2.0000      -0.320880        -8.7316
  45   2.0000      -0.310792        -8.4571
  46   2.0000      -0.300065        -8.1652
  47   2.0000      -0.270849        -7.3702
  48   2.0000      -0.264314        -7.1924
  49   2.0000      -0.251472        -6.8429
  50   2.0000      -0.240668        -6.5489
  51   0.0000       0.064148         1.7455
  52   0.0000       0.083376         2.2688
  53   0.0000       0.087388         2.3780
  54   0.0000       0.102757         2.7961
  55   0.0000       0.106969         2.9108

MULLIKEN ATOMIC CHARGES
-----------------------
   0 C :    0.285726
   1 C :   -0.251736
   2 C :   -0.304239
   3 C :   -0.003145
   4 O :   -0.504291
   5 H :    0.143510
   6 H :    0.144338
   7 H :    0.152718
   8 H :    0.143993
   9 H :    0.161633
  10 H :    0.148744
  11 H :    0.143657
  12 C :    0.004404
  13 H :    0.145416
  14 H :    0.132633
  15 O :   -0.524130
  16 C :    0.063025
  17 C :    0.073408
  18 C :   -0.288021
  19 C :   -0.020940
  20 O :   -0.527429
  21 H :    0.157110
  22 O :   -0.602414
  23 H :    0.156492
  24 H :    0.145437
  25 H :    0.179530
  26 H :    0.149012
  27 H :    0.133894
  28 H :    0.361667
Sum of atomic charges:   -0.0000000

LOEWDIN ATOMIC CHARGES
----------------------
   0 C :    0.176344
   1 C :   -0.219926
   2 C :   -0.216977
   3 C :   -0.027656
   4 O :   -0.318127
   5 H :    0.100285
   6 H :    0.113517
   7 H :    0.121709
   8 H :    0.115224
   9 H :    0.117825
  10 H :    0.105606
  11 H :    0.103386
  12 C :   -0.035831
  13 H :    0.102533
  14 H :    0.098358
  15 O :   -0.333435
  16 C :    0.014522
  17 C :    0.039937
  18 C :   -0.242246
  19 C :   -0.033560
  20 O :   -0.331288
  21 H :    0.116599
  22 O :   -0.417056
  23 H :    0.118159
  24 H :    0.117307
  25 H :    0.131992
  26 H :    0.106029
  27 H :    0.095571
  28 H :    0.281199

  Mayer bond orders larger than 0.100000
B(  0-C ,  1-C ) :   0.9423 B(  0-C ,  4-O ) :   0.9270 B(  0-C ,  5-H ) :   0.9194
B(  0-C , 15-O ) :   0.8378 B(  1-C ,  2-C ) :   0.9563 B(  1-C ,  6-H ) :   0.9364
B(  1-C ,  7-H ) :   0.9373 B(  2-C ,  3-C ) :   0.9541 B(  2-C ,  8-H ) :   0.9450
B(  2-C ,  9-H ) :   0.9434 B(  3-C ,  4-O ) :   0.8380 B(  3-C , 10-H ) :   0.9341
B(  3-C , 11-H ) :   0.9396 B( 12-C , 13-H ) :   0.9179 B( 12-C , 14-H ) :   0.9082
B( 12-C , 15-O ) :   0.8389 B( 12-C , 16-C ) :   0.9119 B( 16-C , 17-C ) :   0.9076
B( 16-C , 20-O ) :   0.8738 B( 16-C , 21-H ) :   0.9215 B( 17-C , 18-C ) :   0.9252
B( 17-C , 22-O ) :   0.8917 B( 17-C , 23-H ) :   0.9349 B( 18-C , 19-C ) :   0.9463
B( 18-C , 24-H ) :   0.9373 B( 18-C , 25-H ) :   0.9163 B( 19-C , 20-O ) :   0.8385
B( 19-C , 26-H ) :   0.9339 B( 19-C , 27-H ) :   0.9380 B( 22-O , 28-H ) :   0.7964

FINAL SINGLE POINT ENERGY      -652.864118733966

DIPOLE MOMENT
-------------
                                X             Y             Z
Electronic contribution:     -3.49739      -3.70430      -1.47384
Nuclear contribution   :      4.35728       4.48235       1.23674
                        -----------------------------------------
Total Dipole Moment    :      0.85989       0.77805      -0.23710
                        -----------------------------------------
Magnitude (a.u.)       :      1.18363
Magnitude (Debye)      :      3.00856

Rotational constants in cm-1:     0.052327     0.014336     0.014130
Rotational constants in MHz :  1568.711093   429.795953   423.615276

                             ****ORCA TERMINATED NORMALLY****
TOTAL RUN TIME: 0 days 1 hours 6 minutes 19 seconds 283 msec
