                         Program Version 4.2.1 -  RELEASE  -
|  1> # Test redundant internal optimization
|  2> #
|  3> ! RKS B3LYP  Opt TightSCF SmallPrint
|  4>
|  5> %basis
|  6>         Basis "6-31G"
|  7> end
|  8>
|  9> %geom
| 10> Constraints
| 11> { D 4  0  19  14  105.0   C } # D for Dihedral angle
| 12> { D 0  19  14  12  105.0   C } # D for Dihedral angle
| 13> { D 0  4  3  2   C } # D for Dihedral angle
| 14> { D 4  3  2  1   C } # D for Dihedral angle
| 15> { D 3  2  1  0   C } # D for Dihedral angle
| 16> { D 2  1  0  4   C } # D for Dihedral angle
| 17> { D 1  0  4  3   C } # D for Dihedral angle
| 18> { D 14  15  16  17   C } # D for Dihedral angle
| 19> { D 15  16  17  12   C } # D for Dihedral angle
| 20> { D 16  17  12  14   C } # D for Dihedral angle
| 21> { D 17  12  14  15   C } # D for Dihedral angle
| 22> { D 12  14  15  16   C } # D for Dihedral angle
| 23> end
| 24> end
| 25>
| 26>
| 27> #%pal
| 28> #nprocs 8
| 29> #end
| 30>
| 31> * xyz 0 1
| 32> C  -21.048   26.222   46.251
| 33> C  -20.361   27.558   45.944
| 34> C  -20.329   28.222   47.341
| 35> C  -20.110   27.022   48.296
| 36> O  -20.473   25.807   47.535
| 37> H  -20.833   25.428   45.533
| 38> H  -19.344   27.382   45.576
| 39> H  -20.898   28.157   45.201
| 40> H  -19.543   28.978   47.434
| 41> H  -21.289   28.710   47.548
| 42> H  -20.733   27.082   49.195
| 43> H  -19.064   26.913   48.597
| 44> C  -23.541   28.137   45.063
| 45> H  -23.621   29.231   44.960
| 46> C  -22.914   27.747   46.406
| 47> C  -24.113   27.905   47.370
| 48> C  -25.320   27.462   46.506
| 49> O  -24.875   27.527   45.096
| 50> H  -23.027   27.732   44.189
| 51> O  -22.472   26.381   46.366
| 52> H  -22.062   28.378   46.682
| 53> H  -24.009   27.307   48.280
| 54> H  -24.220   28.955   47.671
| 55> H  -26.193   28.111   46.637
| 56> H  -25.617   26.427   46.702
| 57> *
| 58>
| 59>                          ****END OF INPUT****
 Total Charge           Charge          ....    0
 Multiplicity           Mult            ....    1
 Number of Electrons    NEL             ....   86
FINAL SINGLE POINT ENERGY      -538.383913562325
FINAL SINGLE POINT ENERGY      -538.419655869315
FINAL SINGLE POINT ENERGY      -538.422456161184
FINAL SINGLE POINT ENERGY      -538.422935011320
FINAL SINGLE POINT ENERGY      -538.422969516455
FINAL SINGLE POINT ENERGY      -538.422978749656
FINAL SINGLE POINT ENERGY      -538.422977882744
                    ***********************HURRAY********************

CARTESIAN COORDINATES (ANGSTROEM)
---------------------------------
  C    -21.114383   26.342687   46.379969
  C    -20.154939   27.466925   45.961353
  C    -19.898679   28.200232   47.312741
  C    -19.914801   27.029712   48.329683
  O    -20.585941   25.900092   47.650481
  H    -21.058046   25.464133   45.735314
  H    -19.229934   27.011858   45.594599
  H    -20.552470   28.118299   45.177971
  H    -18.940563   28.729554   47.317016
  H    -20.678392   28.933648   47.532891
  H    -20.456510   27.269445   49.249594
  H    -18.907219   26.691730   48.588477
  C    -23.728856   28.282997   45.076188
  H    -23.970860   29.355712   45.010371
  C    -23.126705   27.951513   46.441685
  C    -24.386347   27.872194   47.327934
  C    -25.450412   27.270321   46.380103
  O    -24.937219   27.464141   45.004338
  H    -23.091271   27.999333   44.236718
  O    -22.530851   26.620772   46.426034
  H    -22.425599   28.714966   46.785598
  H    -24.200902   27.253832   48.208494
  H    -24.671727   28.878799   47.654636
  H    -26.424084   27.763779   46.471108
  H    -25.572289   26.194328   46.525704

 Multiplicity           Mult            ....    1
 Number of Electrons    NEL             ....   86
 Basis Dimension        Dim             ....  127

ORBITAL ENERGIES
----------------

  NO   OCC          E(Eh)            E(eV)
   0   2.0000     -19.139181      -520.8036
   1   2.0000     -19.139022      -520.7993
   2   2.0000     -19.126220      -520.4509
   3   2.0000     -10.280106      -279.7359
   4   2.0000     -10.242994      -278.7260
   5   2.0000     -10.229606      -278.3617
   6   2.0000     -10.222465      -278.1674
   7   2.0000     -10.217107      -278.0216
   8   2.0000     -10.197798      -277.4962
   9   2.0000     -10.197303      -277.4827
  10   2.0000     -10.183930      -277.1188
  11   2.0000      -1.050381       -28.5823
  12   2.0000      -1.013775       -27.5862
  13   2.0000      -0.989817       -26.9343
  14   2.0000      -0.792402       -21.5623
  15   2.0000      -0.785963       -21.3871
  16   2.0000      -0.739297       -20.1173
  17   2.0000      -0.725710       -19.7476
  18   2.0000      -0.622308       -16.9339
  19   2.0000      -0.607806       -16.5392
  20   2.0000      -0.596032       -16.2189
  21   2.0000      -0.565248       -15.3812
  22   2.0000      -0.526881       -14.3372
  23   2.0000      -0.505446       -13.7539
  24   2.0000      -0.486124       -13.2281
  25   2.0000      -0.481858       -13.1120
  26   2.0000      -0.452932       -12.3249
  27   2.0000      -0.448080       -12.1929
  28   2.0000      -0.427948       -11.6451
  29   2.0000      -0.421465       -11.4686
  30   2.0000      -0.411086       -11.1862
  31   2.0000      -0.389038       -10.5863
  32   2.0000      -0.370164       -10.0727
  33   2.0000      -0.369123       -10.0443
  34   2.0000      -0.366318        -9.9680
  35   2.0000      -0.363090        -9.8802
  36   2.0000      -0.348743        -9.4898
  37   2.0000      -0.315052        -8.5730
  38   2.0000      -0.303391        -8.2557
  39   2.0000      -0.289866        -7.8876
  40   2.0000      -0.266429        -7.2499
  41   2.0000      -0.252540        -6.8720
  42   2.0000      -0.231662        -6.3038
  43   0.0000       0.067195         1.8285
  44   0.0000       0.089711         2.4412
  45   0.0000       0.094007         2.5581
  46   0.0000       0.109340         2.9753
  47   0.0000       0.110181         2.9982

MULLIKEN ATOMIC CHARGES
-----------------------
   0 C :    0.313783
   1 C :   -0.299447
   2 C :   -0.314929
   3 C :   -0.004767
   4 O :   -0.497157
   5 H :    0.165919
   6 H :    0.160661
   7 H :    0.146404
   8 H :    0.146946
   9 H :    0.151895
  10 H :    0.144844
  11 H :    0.146777
  12 C :    0.013081
  13 H :    0.118978
  14 C :    0.051678
  15 C :   -0.278265
  16 C :    0.003016
  17 O :   -0.518936
  18 H :    0.152136
  19 O :   -0.519850
  20 H :    0.124248
  21 H :    0.167039
  22 H :    0.134282
  23 H :    0.131804
  24 H :    0.159859
Sum of atomic charges:   -0.0000000

LOEWDIN ATOMIC CHARGES
----------------------
   0 C :    0.179387
   1 C :   -0.231923
   2 C :   -0.223218
   3 C :   -0.031890
   4 O :   -0.317418
   5 H :    0.111172
   6 H :    0.125572
   7 H :    0.115172
   8 H :    0.116453
   9 H :    0.107087
  10 H :    0.103317
  11 H :    0.104531
  12 C :   -0.043525
  13 H :    0.088642
  14 C :    0.034890
  15 C :   -0.223442
  16 C :   -0.026636
  17 O :   -0.329044
  18 H :    0.113520
  19 O :   -0.317335
  20 H :    0.096757
  21 H :    0.130187
  22 H :    0.109094
  23 H :    0.096919
  24 H :    0.111730

  Mayer bond orders larger than 0.100000
B(  0-C ,  1-C ) :   0.9249 B(  0-C ,  4-O ) :   0.9052 B(  0-C ,  5-H ) :   0.9337
B(  0-C , 19-O ) :   0.8960 B(  1-C ,  2-C ) :   0.9519 B(  1-C ,  6-H ) :   0.9346
B(  1-C ,  7-H ) :   0.9330 B(  2-C ,  3-C ) :   0.9462 B(  2-C ,  8-H ) :   0.9448
B(  2-C ,  9-H ) :   0.9348 B(  3-C ,  4-O ) :   0.8510 B(  3-C , 10-H ) :   0.9342
B(  3-C , 11-H ) :   0.9389 B( 12-C , 13-H ) :   0.9107 B( 12-C , 14-C ) :   0.9195
B( 12-C , 17-O ) :   0.8771 B( 12-C , 18-H ) :   0.9338 B( 14-C , 15-C ) :   0.9525
B( 14-C , 19-O ) :   0.8267 B( 14-C , 20-H ) :   0.9035 B( 15-C , 16-C ) :   0.9492
B( 15-C , 21-H ) :   0.9369 B( 15-C , 22-H ) :   0.9411 B( 16-C , 17-O ) :   0.8533
B( 16-C , 23-H ) :   0.9338 B( 16-C , 24-H ) :   0.9352

FINAL SINGLE POINT ENERGY      -538.422976178236

DIPOLE MOMENT
-------------
                                X             Y             Z
Electronic contribution:     -1.71896      -4.35464      -1.51655
Nuclear contribution   :      2.62138       5.78472       1.98028
                        -----------------------------------------
Total Dipole Moment    :      0.90242       1.43008       0.46373
                        -----------------------------------------
Magnitude (a.u.)       :      1.75344
Magnitude (Debye)      :      4.45689

Rotational constants in cm-1:     0.082115     0.020877     0.019998
Rotational constants in MHz :  2461.752084   625.865960   599.513596

                             ****ORCA TERMINATED NORMALLY****
TOTAL RUN TIME: 0 days 0 hours 8 minutes 9 seconds 12 msec
