                         Program Version 4.2.0 -  RELEASE  -
|  1> # Test redundant internal optimization
|  2> #
|  3> ! RKS B3LYP  Opt TightSCF SmallPrint
|  4>
|  5> %basis
|  6>         Basis "6-31G"
|  7> end
|  8>
|  9> %geom
| 10> Constraints
| 11> { D 4  0  15  12  165.0   C } # D for Dihedral angle
| 12> { D 0  15  12  16  195.0   C } # D for Dihedral angle
| 13> { D 0  4  3  2   C } # D for Dihedral angle
| 14> { D 4  3  2  1   C } # D for Dihedral angle
| 15> { D 3  2  1  0   C } # D for Dihedral angle
| 16> { D 2  1  0  4   C } # D for Dihedral angle
| 17> { D 1  0  4  3   C } # D for Dihedral angle
| 18> { D 16  20  19  18   C } # D for Dihedral angle
| 19> { D 20  19  18  17   C } # D for Dihedral angle
| 20> { D 19  18  17  16   C } # D for Dihedral angle
| 21> { D 18  17  16  20   C } # D for Dihedral angle
| 22> { D 17  16  20  19   C } # D for Dihedral angle
| 23> { D 15  12  16  20   C } # D for Dihedral angle
| 24> end
| 25> end
| 26>
| 27>
| 28> #%pal
| 29> #nprocs 8
| 30> #end
| 31>
| 32> * xyz 0 1
| 33> C  -21.048   26.222   46.251
| 34> C  -20.361   27.558   45.944
| 35> C  -20.329   28.222   47.341
| 36> C  -20.110   27.022   48.296
| 37> O  -20.473   25.807   47.535
| 38> H  -20.833   25.428   45.533
| 39> H  -19.344   27.382   45.576
| 40> H  -20.898   28.157   45.201
| 41> H  -19.543   28.978   47.434
| 42> H  -21.289   28.710   47.548
| 43> H  -20.733   27.082   49.195
| 44> H  -19.064   26.913   48.597
| 45> C  -23.260   27.170   45.210
| 46> H  -22.660   28.057   44.972
| 47> H  -23.315   26.542   44.312
| 48> O  -22.586   26.394   46.375
| 49> C  -24.703   27.633   45.553
| 50> C  -24.703   28.653   46.697
| 51> C  -24.296   29.952   45.960
| 52> C  -24.970   29.794   44.573
| 53> O  -25.290   28.359   44.422
| 54> H  -25.328   26.756   45.729
| 55> H  -25.711   28.747   47.117
| 56> O  -23.727   28.282   47.847
| 57> H  -24.622   30.856   46.482
| 58> H  -23.205   29.999   45.856
| 59> H  -24.317   30.105   43.752
| 60> H  -25.912   30.344   44.503
| 61> H  -22.711   28.183   47.449
| 62> *
| 63>
| 64>                          ****END OF INPUT****
 Total Charge           Charge          ....    0
 Multiplicity           Mult            ....    1
 Number of Electrons    NEL             ....  102
FINAL SINGLE POINT ENERGY      -652.816806535010
FINAL SINGLE POINT ENERGY      -652.843218120303
FINAL SINGLE POINT ENERGY      -652.851906723434
FINAL SINGLE POINT ENERGY      -652.855955916285
FINAL SINGLE POINT ENERGY      -652.858656837662
FINAL SINGLE POINT ENERGY      -652.860813842542
FINAL SINGLE POINT ENERGY      -652.862322135161
FINAL SINGLE POINT ENERGY      -652.863239415199
FINAL SINGLE POINT ENERGY      -652.863533773951
FINAL SINGLE POINT ENERGY      -652.863565147338
FINAL SINGLE POINT ENERGY      -652.863576030176
                    ***********************HURRAY********************

CARTESIAN COORDINATES (ANGSTROEM)
---------------------------------
  C    -21.081202   26.263673   46.217636
  C    -20.228332   27.491390   45.899800
  C    -20.275214   28.273534   47.238769
  C    -20.291670   27.146486   48.290666
  O    -20.705587   25.918438   47.552118
  H    -20.900333   25.392228   45.583302
  H    -19.210672   27.146560   45.684306
  H    -20.566378   28.078692   45.043071
  H    -19.417268   28.941445   47.358450
  H    -21.192117   28.865790   47.306689
  H    -21.004579   27.322493   49.099803
  H    -19.305587   26.932930   48.711531
  C    -23.176291   27.202197   45.119415
  H    -22.591451   28.075491   44.808580
  H    -23.276093   26.527459   44.261095
  O    -22.533803   26.513512   46.242422
  C    -24.567783   27.643950   45.591776
  C    -24.581784   28.653579   46.751166
  C    -24.293759   29.991930   46.009569
  C    -25.016784   29.803050   44.658914
  O    -25.250080   28.338632   44.503427
  H    -25.162915   26.755010   45.820450
  H    -25.592954   28.680260   47.175721
  O    -23.641274   28.397446   47.817178
  H    -24.659986   30.856763   46.569138
  H    -23.211271   30.102763   45.887259
  H    -24.435662   30.160248   43.802600
  H    -26.001132   30.278707   44.638102
  H    -23.169039   27.552342   47.617046

 Multiplicity           Mult            ....    1
 Number of Electrons    NEL             ....  102
 Basis Dimension        Dim             ....  149

ORBITAL ENERGIES
----------------

  NO   OCC          E(Eh)            E(eV)
   0   2.0000     -19.161678      -521.4158
   1   2.0000     -19.150829      -521.1206
   2   2.0000     -19.143876      -520.9314
   3   2.0000     -19.120590      -520.2977
   4   2.0000     -10.292552      -280.0746
   5   2.0000     -10.240767      -278.6654
   6   2.0000     -10.237964      -278.5892
   7   2.0000     -10.235312      -278.5170
   8   2.0000     -10.230769      -278.3934
   9   2.0000     -10.230614      -278.3892
  10   2.0000     -10.198236      -277.5081
  11   2.0000     -10.190284      -277.2917
  12   2.0000     -10.184974      -277.1472
  13   2.0000      -1.065210       -28.9858
  14   2.0000      -1.030031       -28.0286
  15   2.0000      -1.007997       -27.4290
  16   2.0000      -0.996280       -27.1102
  17   2.0000      -0.794414       -21.6171
  18   2.0000      -0.777062       -21.1449
  19   2.0000      -0.771908       -21.0047
  20   2.0000      -0.738455       -20.0944
  21   2.0000      -0.683369       -18.5954
  22   2.0000      -0.608759       -16.5652
  23   2.0000      -0.601544       -16.3688
  24   2.0000      -0.595283       -16.1985
  25   2.0000      -0.581616       -15.8266
  26   2.0000      -0.532544       -14.4912
  27   2.0000      -0.516076       -14.0431
  28   2.0000      -0.506296       -13.7770
  29   2.0000      -0.494411       -13.4536
  30   2.0000      -0.474519       -12.9123
  31   2.0000      -0.458984       -12.4896
  32   2.0000      -0.450446       -12.2572
  33   2.0000      -0.439519       -11.9599
  34   2.0000      -0.431611       -11.7447
  35   2.0000      -0.415766       -11.3136
  36   2.0000      -0.413096       -11.2409
  37   2.0000      -0.390155       -10.6167
  38   2.0000      -0.384327       -10.4581
  39   2.0000      -0.372642       -10.1401
  40   2.0000      -0.365478        -9.9452
  41   2.0000      -0.362264        -9.8577
  42   2.0000      -0.352309        -9.5868
  43   2.0000      -0.342749        -9.3267
  44   2.0000      -0.325276        -8.8512
  45   2.0000      -0.313941        -8.5428
  46   2.0000      -0.293825        -7.9954
  47   2.0000      -0.276068        -7.5122
  48   2.0000      -0.266248        -7.2450
  49   2.0000      -0.251134        -6.8337
  50   2.0000      -0.248840        -6.7713
  51   0.0000       0.056324         1.5326
  52   0.0000       0.065943         1.7944
  53   0.0000       0.092246         2.5101
  54   0.0000       0.094642         2.5753
  55   0.0000       0.106200         2.8899

MULLIKEN ATOMIC CHARGES
-----------------------
   0 C :    0.323008
   1 C :   -0.293802
   2 C :   -0.317773
   3 C :   -0.017992
   4 O :   -0.501083
   5 H :    0.155310
   6 H :    0.156376
   7 H :    0.144951
   8 H :    0.144894
   9 H :    0.178412
  10 H :    0.167549
  11 H :    0.148796
  12 C :   -0.011292
  13 H :    0.133306
  14 H :    0.157748
  15 O :   -0.556461
  16 C :    0.043512
  17 C :    0.120825
  18 C :   -0.305916
  19 C :   -0.017735
  20 O :   -0.519243
  21 H :    0.167955
  22 H :    0.146785
  23 O :   -0.646597
  24 H :    0.152434
  25 H :    0.148428
  26 H :    0.139949
  27 H :    0.151631
  28 H :    0.406022
Sum of atomic charges:   -0.0000000

LOEWDIN ATOMIC CHARGES
----------------------
   0 C :    0.186182
   1 C :   -0.232277
   2 C :   -0.226131
   3 C :   -0.028629
   4 O :   -0.301300
   5 H :    0.104919
   6 H :    0.121536
   7 H :    0.114226
   8 H :    0.116841
   9 H :    0.123265
  10 H :    0.114541
  11 H :    0.106660
  12 C :   -0.045600
  13 H :    0.094462
  14 H :    0.109792
  15 O :   -0.344476
  16 C :    0.018782
  17 C :    0.042129
  18 C :   -0.234237
  19 C :   -0.031736
  20 O :   -0.321331
  21 H :    0.118265
  22 H :    0.103528
  23 O :   -0.438451
  24 H :    0.121760
  25 H :    0.110705
  26 H :    0.100857
  27 H :    0.107153
  28 H :    0.288565

  Mayer bond orders larger than 0.100000
B(  0-C ,  1-C ) :   0.9313 B(  0-C ,  4-O ) :   0.9494 B(  0-C ,  5-H ) :   0.9246
B(  0-C , 15-O ) :   0.7842 B(  1-C ,  2-C ) :   0.9459 B(  1-C ,  6-H ) :   0.9325
B(  1-C ,  7-H ) :   0.9277 B(  2-C ,  3-C ) :   0.9533 B(  2-C ,  8-H ) :   0.9448
B(  2-C ,  9-H ) :   0.9187 B(  3-C ,  4-O ) :   0.8218 B(  3-C , 10-H ) :   0.9312
B(  3-C , 11-H ) :   0.9401 B( 12-C , 13-H ) :   0.9093 B( 12-C , 14-H ) :   0.9230
B( 12-C , 15-O ) :   0.7965 B( 12-C , 16-C ) :   0.9068 B( 16-C , 17-C ) :   0.9163
B( 16-C , 20-O ) :   0.8600 B( 16-C , 21-H ) :   0.9269 B( 17-C , 18-C ) :   0.9091
B( 17-C , 22-H ) :   0.9259 B( 17-C , 23-O ) :   0.9205 B( 18-C , 19-C ) :   0.9395
B( 18-C , 24-H ) :   0.9448 B( 18-C , 25-H ) :   0.9422 B( 19-C , 20-O ) :   0.8326
B( 19-C , 26-H ) :   0.9347 B( 19-C , 27-H ) :   0.9383 B( 23-O , 28-H ) :   0.7039

FINAL SINGLE POINT ENERGY      -652.863576789190

DIPOLE MOMENT
-------------
                                X             Y             Z
Electronic contribution:     -3.01667      -5.42755       0.75787
Nuclear contribution   :      3.93129       6.28018      -1.50043
                        -----------------------------------------
Total Dipole Moment    :      0.91462       0.85263      -0.74257
                        -----------------------------------------
Magnitude (a.u.)       :      1.45427
Magnitude (Debye)      :      3.69647

Rotational constants in cm-1:     0.052487     0.015988     0.015004
Rotational constants in MHz :  1573.512889   479.302607   449.823023

                             ****ORCA TERMINATED NORMALLY****
TOTAL RUN TIME: 0 days 0 hours 40 minutes 57 seconds 384 msec
