                         Program Version 4.2.0 -  RELEASE  -
|  1> # Test redundant internal optimization
|  2> #
|  3> ! RKS B3LYP  Opt TightSCF SmallPrint
|  4>
|  5> %basis
|  6>         Basis "6-31G"
|  7> end
|  8>
|  9> %geom
| 10> Constraints
| 11> { D 4  0  15  12  150.0   C } # D for Dihedral angle
| 12> { D 0  15  12  16  210.0   C } # D for Dihedral angle
| 13> { D 0  4  3  2   C } # D for Dihedral angle
| 14> { D 4  3  2  1   C } # D for Dihedral angle
| 15> { D 3  2  1  0   C } # D for Dihedral angle
| 16> { D 2  1  0  4   C } # D for Dihedral angle
| 17> { D 1  0  4  3   C } # D for Dihedral angle
| 18> { D 16  20  19  18   C } # D for Dihedral angle
| 19> { D 20  19  18  17   C } # D for Dihedral angle
| 20> { D 19  18  17  16   C } # D for Dihedral angle
| 21> { D 18  17  16  20   C } # D for Dihedral angle
| 22> { D 17  16  20  19   C } # D for Dihedral angle
| 23> { D 15  12  16  20   C } # D for Dihedral angle
| 24> end
| 25> end
| 26>
| 27>
| 28> #%pal
| 29> #nprocs 8
| 30> #end
| 31>
| 32> * xyz 0 1
| 33> C  -21.048   26.222   46.251
| 34> C  -20.361   27.558   45.944
| 35> C  -20.329   28.222   47.341
| 36> C  -20.110   27.022   48.296
| 37> O  -20.473   25.807   47.535
| 38> H  -20.833   25.428   45.533
| 39> H  -19.344   27.382   45.576
| 40> H  -20.898   28.157   45.201
| 41> H  -19.543   28.978   47.434
| 42> H  -21.289   28.710   47.548
| 43> H  -20.733   27.082   49.195
| 44> H  -19.064   26.913   48.597
| 45> C  -23.210   27.459   45.431
| 46> H  -22.470   28.244   45.232
| 47> H  -23.493   27.004   44.474
| 48> O  -22.586   26.394   46.375
| 49> C  -24.478   28.124   46.033
| 50> C  -24.140   28.931   47.292
| 51> C  -23.558   30.230   46.685
| 52> C  -24.400   30.425   45.399
| 53> O  -25.025   29.119   45.103
| 54> H  -25.248   27.364   46.176
| 55> O  -25.435   29.232   48.094
| 56> H  -23.436   28.418   47.956
| 57> H  -23.629   31.084   47.365
| 58> H  -22.500   30.087   46.437
| 59> H  -23.792   30.735   44.543
| 60> H  -25.210   31.147   45.537
| 61> H  -26.157   29.747   47.449
| 62> *
| 63>
| 64>                          ****END OF INPUT****
 Total Charge           Charge          ....    0
 Multiplicity           Mult            ....    1
 Number of Electrons    NEL             ....  102
FINAL SINGLE POINT ENERGY      -652.822648689626
FINAL SINGLE POINT ENERGY      -652.846378505242
FINAL SINGLE POINT ENERGY      -652.851838840011
FINAL SINGLE POINT ENERGY      -652.854224301657
FINAL SINGLE POINT ENERGY      -652.854537406955
FINAL SINGLE POINT ENERGY      -652.854602709903
                    ***********************HURRAY********************

CARTESIAN COORDINATES (ANGSTROEM)
---------------------------------
  C    -21.139598   26.274851   46.258927
  C    -20.194347   27.429265   45.923408
  C    -20.174483   28.230234   47.252790
  C    -20.274903   27.114991   48.316756
  O    -20.782986   25.919178   47.601759
  H    -20.986203   25.379689   45.650040
  H    -19.206272   27.003403   45.717925
  H    -20.481325   28.028123   45.055850
  H    -19.265968   28.829822   47.363167
  H    -21.032976   28.905403   47.309482
  H    -20.961595   27.356038   49.132425
  H    -19.301736   26.840870   48.733924
  C    -23.177118   27.528115   45.335575
  H    -22.479700   28.325720   45.053371
  H    -23.505583   27.026993   44.416773
  O    -22.569816   26.575522   46.250150
  C    -24.395473   28.138636   46.035680
  C    -24.105173   28.941874   47.311973
  C    -23.637539   30.301146   46.729126
  C    -24.511371   30.456861   45.458970
  O    -25.033991   29.107721   45.138280
  H    -25.128218   27.352979   46.238966
  O    -25.308998   29.092379   48.112956
  H    -23.378954   28.457995   47.962477
  H    -23.790827   31.105853   47.452915
  H    -22.573040   30.267246   46.473714
  H    -23.950019   30.836548   44.599112
  H    -25.376922   31.106588   45.621916
  H    -26.066865   29.290955   47.523595

 Multiplicity           Mult            ....    1
 Number of Electrons    NEL             ....  102
 Basis Dimension        Dim             ....  149

ORBITAL ENERGIES
----------------

  NO   OCC          E(Eh)            E(eV)
   0   2.0000     -19.147623      -521.0333
   1   2.0000     -19.143562      -520.9228
   2   2.0000     -19.142586      -520.8962
   3   2.0000     -19.137007      -520.7444
   4   2.0000     -10.285107      -279.8720
   5   2.0000     -10.238932      -278.6155
   6   2.0000     -10.235292      -278.5165
   7   2.0000     -10.235223      -278.5146
   8   2.0000     -10.234376      -278.4915
   9   2.0000     -10.230715      -278.3919
  10   2.0000     -10.198033      -277.5026
  11   2.0000     -10.197624      -277.4914
  12   2.0000     -10.192232      -277.3447
  13   2.0000      -1.055119       -28.7112
  14   2.0000      -1.039078       -28.2747
  15   2.0000      -1.006724       -27.3944
  16   2.0000      -0.996104       -27.1054
  17   2.0000      -0.795105       -21.6359
  18   2.0000      -0.783360       -21.3163
  19   2.0000      -0.772306       -21.0155
  20   2.0000      -0.736291       -20.0355
  21   2.0000      -0.682013       -18.5585
  22   2.0000      -0.609976       -16.5983
  23   2.0000      -0.606441       -16.5021
  24   2.0000      -0.596472       -16.2308
  25   2.0000      -0.579666       -15.7735
  26   2.0000      -0.528952       -14.3935
  27   2.0000      -0.515318       -14.0225
  28   2.0000      -0.506120       -13.7722
  29   2.0000      -0.497194       -13.5293
  30   2.0000      -0.478835       -13.0298
  31   2.0000      -0.458518       -12.4769
  32   2.0000      -0.453249       -12.3335
  33   2.0000      -0.443928       -12.0799
  34   2.0000      -0.429081       -11.6759
  35   2.0000      -0.418209       -11.3800
  36   2.0000      -0.408680       -11.1208
  37   2.0000      -0.395790       -10.7700
  38   2.0000      -0.384510       -10.4631
  39   2.0000      -0.373654       -10.1676
  40   2.0000      -0.368185       -10.0188
  41   2.0000      -0.360754        -9.8166
  42   2.0000      -0.356512        -9.7012
  43   2.0000      -0.334619        -9.1054
  44   2.0000      -0.318184        -8.6582
  45   2.0000      -0.308073        -8.3831
  46   2.0000      -0.299112        -8.1393
  47   2.0000      -0.275802        -7.5050
  48   2.0000      -0.265929        -7.2363
  49   2.0000      -0.255669        -6.9571
  50   2.0000      -0.246300        -6.7022
  51   0.0000       0.055462         1.5092
  52   0.0000       0.064529         1.7559
  53   0.0000       0.089536         2.4364
  54   0.0000       0.090870         2.4727
  55   0.0000       0.100450         2.7334

MULLIKEN ATOMIC CHARGES
-----------------------
   0 C :    0.326858
   1 C :   -0.301638
   2 C :   -0.313770
   3 C :   -0.003654
   4 O :   -0.494504
   5 H :    0.151600
   6 H :    0.157181
   7 H :    0.144095
   8 H :    0.146651
   9 H :    0.157243
  10 H :    0.155583
  11 H :    0.146958
  12 C :   -0.000897
  13 H :    0.117837
  14 H :    0.150541
  15 O :   -0.531900
  16 C :    0.060015
  17 C :    0.085447
  18 C :   -0.309677
  19 C :   -0.030333
  20 O :   -0.526629
  21 H :    0.173717
  22 O :   -0.602646
  23 H :    0.174771
  24 H :    0.164150
  25 H :    0.145384
  26 H :    0.144029
  27 H :    0.149715
  28 H :    0.363873
Sum of atomic charges:   -0.0000000

LOEWDIN ATOMIC CHARGES
----------------------
   0 C :    0.187450
   1 C :   -0.233298
   2 C :   -0.220921
   3 C :   -0.027650
   4 O :   -0.302409
   5 H :    0.101285
   6 H :    0.122754
   7 H :    0.113729
   8 H :    0.116996
   9 H :    0.109875
  10 H :    0.108716
  11 H :    0.105319
  12 C :   -0.037116
  13 H :    0.088821
  14 H :    0.106100
  15 O :   -0.340137
  16 C :    0.017687
  17 C :    0.037514
  18 C :   -0.245656
  19 C :   -0.038475
  20 O :   -0.329823
  21 H :    0.121645
  22 O :   -0.412390
  23 H :    0.124237
  24 H :    0.127555
  25 H :    0.109241
  26 H :    0.102529
  27 H :    0.104090
  28 H :    0.282331

  Mayer bond orders larger than 0.100000
B(  0-C ,  1-C ) :   0.9288 B(  0-C ,  4-O ) :   0.9334 B(  0-C ,  5-H ) :   0.9261
B(  0-C , 15-O ) :   0.8384 B(  1-C ,  2-C ) :   0.9509 B(  1-C ,  6-H ) :   0.9329
B(  1-C ,  7-H ) :   0.9272 B(  2-C ,  3-C ) :   0.9513 B(  2-C ,  8-H ) :   0.9460
B(  2-C ,  9-H ) :   0.9319 B(  3-C ,  4-O ) :   0.8388 B(  3-C , 10-H ) :   0.9323
B(  3-C , 11-H ) :   0.9387 B( 12-C , 13-H ) :   0.9099 B( 12-C , 14-H ) :   0.9190
B( 12-C , 15-O ) :   0.8330 B( 12-C , 16-C ) :   0.9027 B( 16-C , 17-C ) :   0.9108
B( 16-C , 20-O ) :   0.8425 B( 16-C , 21-H ) :   0.9236 B( 17-C , 18-C ) :   0.9116
B( 17-C , 22-O ) :   0.8891 B( 17-C , 23-H ) :   0.9200 B( 18-C , 19-C ) :   0.9379
B( 18-C , 24-H ) :   0.9377 B( 18-C , 25-H ) :   0.9253 B( 19-C , 20-O ) :   0.8441
B( 19-C , 26-H ) :   0.9358 B( 19-C , 27-H ) :   0.9375 B( 22-O , 28-H ) :   0.7949

FINAL SINGLE POINT ENERGY      -652.854609428172

DIPOLE MOMENT
-------------
                                X             Y             Z
Electronic contribution:     -4.83356      -4.98963       0.49781
Nuclear contribution   :      5.97911       6.28698      -1.25316
                        -----------------------------------------
Total Dipole Moment    :      1.14555       1.29735      -0.75535
                        -----------------------------------------
Magnitude (a.u.)       :      1.88837
Magnitude (Debye)      :      4.79986

Rotational constants in cm-1:     0.046830     0.015433     0.014823
Rotational constants in MHz :  1403.937333   462.673289   444.387483

                             ****ORCA TERMINATED NORMALLY****
TOTAL RUN TIME: 0 days 0 hours 16 minutes 57 seconds 622 msec
