                         Program Version 4.2.0 -  RELEASE  -
|  1> # Test redundant internal optimization
|  2> #
|  3> ! RKS B3LYP  Opt TightSCF SmallPrint
|  4>
|  5> %basis
|  6>         Basis "6-31G"
|  7> end
|  8>
|  9> %geom
| 10> Constraints
| 11> { D 4  0  15  12  60.0   C } # D for Dihedral angle
| 12> { D 0  15  12  16  195.0   C } # D for Dihedral angle
| 13> { D 0  4  3  2   C } # D for Dihedral angle
| 14> { D 4  3  2  1   C } # D for Dihedral angle
| 15> { D 3  2  1  0   C } # D for Dihedral angle
| 16> { D 2  1  0  4   C } # D for Dihedral angle
| 17> { D 1  0  4  3   C } # D for Dihedral angle
| 18> { D 16  20  19  18   C } # D for Dihedral angle
| 19> { D 20  19  18  17   C } # D for Dihedral angle
| 20> { D 19  18  17  16   C } # D for Dihedral angle
| 21> { D 18  17  16  20   C } # D for Dihedral angle
| 22> { D 17  16  20  19   C } # D for Dihedral angle
| 23> { D 15  12  16  20   C } # D for Dihedral angle
| 24> end
| 25> end
| 26>
| 27>
| 28> #%pal
| 29> #nprocs 8
| 30> #end
| 31>
| 32> * xyz 0 1
| 33> C  -21.048   26.222   46.251
| 34> C  -20.361   27.558   45.944
| 35> C  -20.329   28.222   47.341
| 36> C  -20.110   27.022   48.296
| 37> O  -20.473   25.807   47.535
| 38> H  -20.833   25.428   45.533
| 39> H  -19.344   27.382   45.576
| 40> H  -20.898   28.157   45.201
| 41> H  -19.543   28.978   47.434
| 42> H  -21.289   28.710   47.548
| 43> H  -20.733   27.082   49.195
| 44> H  -19.064   26.913   48.597
| 45> C  -23.051   27.452   47.413
| 46> H  -22.470   27.332   48.337
| 47> H  -22.881   28.466   47.030
| 48> O  -22.586   26.394   46.375
| 49> C  -24.559   27.326   47.765
| 50> C  -25.008   28.453   48.701
| 51> C  -25.179   29.632   47.713
| 52> C  -25.703   28.941   46.429
| 53> O  -25.382   27.504   46.564
| 54> H  -24.756   26.320   48.142
| 55> O  -26.367   28.090   49.360
| 56> H  -24.285   28.667   49.495
| 57> H  -25.865   30.400   48.083
| 58> H  -24.210   30.110   47.526
| 59> H  -25.230   29.330   45.520
| 60> H  -26.789   29.020   46.326
| 61> H  -27.107   27.872   48.582
| 62> *
| 63>
| 64>                          ****END OF INPUT****
 Total Charge           Charge          ....    0
 Multiplicity           Mult            ....    1
 Number of Electrons    NEL             ....  102
FINAL SINGLE POINT ENERGY      -652.813430447716
FINAL SINGLE POINT ENERGY      -652.840365283210
FINAL SINGLE POINT ENERGY      -652.853088303572
FINAL SINGLE POINT ENERGY      -652.855335088321
FINAL SINGLE POINT ENERGY      -652.855729657587
FINAL SINGLE POINT ENERGY      -652.855779347242
FINAL SINGLE POINT ENERGY      -652.855785003288
                    ***********************HURRAY********************

CARTESIAN COORDINATES (ANGSTROEM)
---------------------------------
  C    -21.223782   26.338340   46.423805
  C    -20.313427   27.477422   45.940960
  C    -19.917964   28.167467   47.279320
  C    -19.826365   26.969697   48.259911
  O    -20.566581   25.855083   47.620201
  H    -21.251037   25.493471   45.734648
  H    -19.433628   27.043625   45.454595
  H    -20.814355   28.144681   45.234743
  H    -18.966623   28.703678   47.206292
  H    -20.679492   28.886566   47.591084
  H    -20.268022   27.177022   49.239576
  H    -18.796839   26.627460   48.400902
  C    -23.076117   27.628555   47.529677
  H    -22.581987   27.491374   48.501115
  H    -22.864129   28.641683   47.160553
  O    -22.624995   26.633073   46.577145
  C    -24.579126   27.426624   47.711162
  C    -25.232602   28.435212   48.666199
  C    -25.465019   29.652022   47.730954
  C    -25.800093   28.987463   46.372232
  O    -25.319956   27.587440   46.458412
  H    -24.748778   26.396277   48.036648
  O    -26.484342   27.915099   49.190232
  H    -24.629689   28.673656   49.543790
  H    -26.273541   30.281133   48.111511
  H    -24.555758   30.260101   47.664367
  H    -25.311451   29.481008   45.527011
  H    -26.876544   28.948727   46.178339
  H    -26.970757   27.466042   48.466616

 Multiplicity           Mult            ....    1
 Number of Electrons    NEL             ....  102
 Basis Dimension        Dim             ....  149

ORBITAL ENERGIES
----------------

  NO   OCC          E(Eh)            E(eV)
   0   2.0000     -19.143526      -520.9218
   1   2.0000     -19.142776      -520.9014
   2   2.0000     -19.140593      -520.8420
   3   2.0000     -19.139065      -520.8004
   4   2.0000     -10.277435      -279.6632
   5   2.0000     -10.244306      -278.7617
   6   2.0000     -10.235473      -278.5214
   7   2.0000     -10.234227      -278.4875
   8   2.0000     -10.232079      -278.4290
   9   2.0000     -10.230542      -278.3872
  10   2.0000     -10.195478      -277.4331
  11   2.0000     -10.191352      -277.3208
  12   2.0000     -10.190791      -277.3055
  13   2.0000      -1.054129       -28.6843
  14   2.0000      -1.036572       -28.2066
  15   2.0000      -1.007198       -27.4073
  16   2.0000      -0.995953       -27.1012
  17   2.0000      -0.790793       -21.5186
  18   2.0000      -0.786703       -21.4073
  19   2.0000      -0.772163       -21.0116
  20   2.0000      -0.734164       -19.9776
  21   2.0000      -0.679116       -18.4797
  22   2.0000      -0.606781       -16.5114
  23   2.0000      -0.605633       -16.4801
  24   2.0000      -0.599008       -16.2998
  25   2.0000      -0.578493       -15.7416
  26   2.0000      -0.526014       -14.3136
  27   2.0000      -0.510153       -13.8820
  28   2.0000      -0.501419       -13.6443
  29   2.0000      -0.491901       -13.3853
  30   2.0000      -0.481331       -13.0977
  31   2.0000      -0.463087       -12.6013
  32   2.0000      -0.453741       -12.3469
  33   2.0000      -0.436638       -11.8815
  34   2.0000      -0.427892       -11.6435
  35   2.0000      -0.417453       -11.3595
  36   2.0000      -0.403341       -10.9755
  37   2.0000      -0.394410       -10.7324
  38   2.0000      -0.383489       -10.4353
  39   2.0000      -0.372997       -10.1498
  40   2.0000      -0.362661        -9.8685
  41   2.0000      -0.360932        -9.8214
  42   2.0000      -0.352703        -9.5975
  43   2.0000      -0.330710        -8.9991
  44   2.0000      -0.319453        -8.6928
  45   2.0000      -0.311900        -8.4872
  46   2.0000      -0.302377        -8.2281
  47   2.0000      -0.271800        -7.3961
  48   2.0000      -0.266690        -7.2570
  49   2.0000      -0.253235        -6.8909
  50   2.0000      -0.243825        -6.6348
  51   0.0000       0.060962         1.6589
  52   0.0000       0.073883         2.0105
  53   0.0000       0.080286         2.1847
  54   0.0000       0.098420         2.6781
  55   0.0000       0.102445         2.7877

MULLIKEN ATOMIC CHARGES
-----------------------
   0 C :    0.296459
   1 C :   -0.273945
   2 C :   -0.312409
   3 C :   -0.013470
   4 O :   -0.505868
   5 H :    0.169207
   6 H :    0.154713
   7 H :    0.152046
   8 H :    0.146015
   9 H :    0.142805
  10 H :    0.142092
  11 H :    0.149088
  12 C :    0.001084
  13 H :    0.138305
  14 H :    0.122936
  15 O :   -0.505204
  16 C :    0.063968
  17 C :    0.076525
  18 C :   -0.294178
  19 C :   -0.029317
  20 O :   -0.507514
  21 H :    0.175739
  22 O :   -0.600863
  23 H :    0.148639
  24 H :    0.164309
  25 H :    0.138764
  26 H :    0.146325
  27 H :    0.147289
  28 H :    0.366459
Sum of atomic charges:    0.0000000

LOEWDIN ATOMIC CHARGES
----------------------
   0 C :    0.174123
   1 C :   -0.228852
   2 C :   -0.223984
   3 C :   -0.034817
   4 O :   -0.321900
   5 H :    0.115563
   6 H :    0.121202
   7 H :    0.120200
   8 H :    0.116039
   9 H :    0.107008
  10 H :    0.099729
  11 H :    0.105209
  12 C :   -0.044170
  13 H :    0.101764
  14 H :    0.088805
  15 O :   -0.305506
  16 C :    0.018973
  17 C :    0.035373
  18 C :   -0.241724
  19 C :   -0.038433
  20 O :   -0.318274
  21 H :    0.124521
  22 O :   -0.413339
  23 H :    0.113721
  24 H :    0.127030
  25 H :    0.109885
  26 H :    0.104375
  27 H :    0.103097
  28 H :    0.284384

  Mayer bond orders larger than 0.100000
B(  0-C ,  1-C ) :   0.9153 B(  0-C ,  4-O ) :   0.8966 B(  0-C ,  5-H ) :   0.9357
B(  0-C , 15-O ) :   0.9048 B(  1-C ,  2-C ) :   0.9558 B(  1-C ,  6-H ) :   0.9355
B(  1-C ,  7-H ) :   0.9371 B(  2-C ,  3-C ) :   0.9475 B(  2-C ,  8-H ) :   0.9453
B(  2-C ,  9-H ) :   0.9417 B(  3-C ,  4-O ) :   0.8459 B(  3-C , 10-H ) :   0.9320
B(  3-C , 11-H ) :   0.9388 B( 12-C , 13-H ) :   0.9051 B( 12-C , 14-H ) :   0.9109
B( 12-C , 15-O ) :   0.8423 B( 12-C , 16-C ) :   0.9002 B( 16-C , 17-C ) :   0.9003
B( 16-C , 20-O ) :   0.8671 B( 16-C , 21-H ) :   0.9220 B( 17-C , 18-C ) :   0.9100
B( 17-C , 22-O ) :   0.8948 B( 17-C , 23-H ) :   0.9336 B( 18-C , 19-C ) :   0.9396
B( 18-C , 24-H ) :   0.9370 B( 18-C , 25-H ) :   0.9345 B( 19-C , 20-O ) :   0.8536
B( 19-C , 26-H ) :   0.9344 B( 19-C , 27-H ) :   0.9376 B( 22-O , 28-H ) :   0.7928

FINAL SINGLE POINT ENERGY      -652.855783820503

DIPOLE MOMENT
-------------
                                X             Y             Z
Electronic contribution:     -3.98831      -5.88628      -0.20304
Nuclear contribution   :      4.84080       7.43031       0.04944
                        -----------------------------------------
Total Dipole Moment    :      0.85249       1.54404      -0.15360
                        -----------------------------------------
Magnitude (a.u.)       :      1.77042
Magnitude (Debye)      :      4.50005

Rotational constants in cm-1:     0.055838     0.012606     0.012231
Rotational constants in MHz :  1673.968138   377.911989   366.671000

                             ****ORCA TERMINATED NORMALLY****
TOTAL RUN TIME: 0 days 1 hours 1 minutes 1 seconds 395 msec
