                         Program Version 4.2.0 -  RELEASE  -
|  1> # Test redundant internal optimization
|  2> #
|  3> ! RKS B3LYP  Opt TightSCF SmallPrint
|  4>
|  5> %basis
|  6>         Basis "6-31G"
|  7> end
|  8>
|  9> %geom
| 10> Constraints
| 11> { D 4  0  15  12  330.0   C } # D for Dihedral angle
| 12> { D 0  15  12  16  75.0   C } # D for Dihedral angle
| 13> { D 0  4  3  2   C } # D for Dihedral angle
| 14> { D 4  3  2  1   C } # D for Dihedral angle
| 15> { D 3  2  1  0   C } # D for Dihedral angle
| 16> { D 2  1  0  4   C } # D for Dihedral angle
| 17> { D 1  0  4  3   C } # D for Dihedral angle
| 18> { D 16  20  19  18   C } # D for Dihedral angle
| 19> { D 20  19  18  17   C } # D for Dihedral angle
| 20> { D 19  18  17  16   C } # D for Dihedral angle
| 21> { D 18  17  16  20   C } # D for Dihedral angle
| 22> { D 17  16  20  19   C } # D for Dihedral angle
| 23> { D 15  12  16  20   C } # D for Dihedral angle
| 24> end
| 25> end
| 26>
| 27>
| 28> #%pal
| 29> #nprocs 8
| 30> #end
| 31>
| 32> * xyz 0 1
| 33> C  -21.048   26.222   46.251
| 34> C  -20.361   27.558   45.944
| 35> C  -20.329   28.222   47.341
| 36> C  -20.110   27.022   48.296
| 37> O  -20.473   25.807   47.535
| 38> H  -20.833   25.428   45.533
| 39> H  -19.344   27.382   45.576
| 40> H  -20.898   28.157   45.201
| 41> H  -19.543   28.978   47.434
| 42> H  -21.289   28.710   47.548
| 43> H  -20.733   27.082   49.195
| 44> H  -19.064   26.913   48.597
| 45> C  -23.271   25.476   47.424
| 46> H  -24.353   25.467   47.246
| 47> H  -22.900   24.446   47.333
| 48> O  -22.586   26.394   46.375
| 49> C  -23.020   25.941   48.885
| 50> C  -23.658   27.309   49.150
| 51> C  -25.142   26.927   49.364
| 52> C  -25.052   25.554   50.077
| 53> O  -23.687   25.042   49.832
| 54> H  -21.950   25.893   49.097
| 55> O  -23.062   27.934   50.441
| 56> H  -23.516   28.018   48.328
| 57> H  -25.691   27.668   49.953
| 58> H  -25.648   26.827   48.396
| 59> H  -25.781   24.833   49.693
| 60> H  -25.175   25.638   51.160
| 61> H  -23.193   27.241   51.281
| 62> *
| 63>
| 64>                          ****END OF INPUT****
 Total Charge           Charge          ....    0
 Multiplicity           Mult            ....    1
 Number of Electrons    NEL             ....  102
FINAL SINGLE POINT ENERGY      -652.835093502257
FINAL SINGLE POINT ENERGY      -652.856687593634
FINAL SINGLE POINT ENERGY      -652.861733978672
FINAL SINGLE POINT ENERGY      -652.864629192452
FINAL SINGLE POINT ENERGY      -652.864928943370
FINAL SINGLE POINT ENERGY      -652.864984601348
FINAL SINGLE POINT ENERGY      -652.864990075746
                    ***********************HURRAY********************

CARTESIAN COORDINATES (ANGSTROEM)
---------------------------------
  C    -21.052379   26.190790   46.365688
  C    -20.484856   27.550276   45.953692
  C    -20.338559   28.255321   47.321237
  C    -19.946226   27.110259   48.278742
  O    -20.329957   25.845887   47.569746
  H    -20.827096   25.376999   45.666805
  H    -19.509605   27.396675   45.479086
  H    -21.142677   28.079631   45.261140
  H    -19.587623   29.051582   47.304544
  H    -21.292672   28.699046   47.620049
  H    -20.466144   27.161964   49.237913
  H    -18.868558   27.043815   48.450375
  C    -23.205185   25.443682   47.456652
  H    -24.247115   25.483248   47.124680
  H    -22.866392   24.401145   47.398723
  O    -22.496808   26.272532   46.485615
  C    -23.074267   25.901216   48.909901
  C    -23.647350   27.289426   49.224699
  C    -25.158192   26.979860   49.359742
  C    -25.177688   25.567888   49.999722
  O    -23.827905   24.989117   49.780150
  H    -22.034117   25.809985   49.217695
  O    -23.071057   27.823605   50.451016
  H    -23.429575   28.026916   48.453384
  H    -25.657753   27.733475   49.974322
  H    -25.630612   26.976775   48.371938
  H    -25.927295   24.908100   49.551821
  H    -25.342705   25.598731   51.081397
  H    -23.069632   27.121056   51.135528

 Multiplicity           Mult            ....    1
 Number of Electrons    NEL             ....  102
 Basis Dimension        Dim             ....  149

ORBITAL ENERGIES
----------------

  NO   OCC          E(Eh)            E(eV)
   0   2.0000     -19.149131      -521.0743
   1   2.0000     -19.143731      -520.9274
   2   2.0000     -19.143404      -520.9185
   3   2.0000     -19.141118      -520.8563
   4   2.0000     -10.278999      -279.7058
   5   2.0000     -10.238421      -278.6016
   6   2.0000     -10.231532      -278.4141
   7   2.0000     -10.228493      -278.3314
   8   2.0000     -10.226968      -278.2899
   9   2.0000     -10.226436      -278.2755
  10   2.0000     -10.189030      -277.2576
  11   2.0000     -10.187010      -277.2026
  12   2.0000     -10.186249      -277.1819
  13   2.0000      -1.052731       -28.6463
  14   2.0000      -1.035649       -28.1814
  15   2.0000      -1.006625       -27.3917
  16   2.0000      -0.994392       -27.0588
  17   2.0000      -0.790955       -21.5230
  18   2.0000      -0.780168       -21.2294
  19   2.0000      -0.766563       -20.8592
  20   2.0000      -0.731009       -19.8918
  21   2.0000      -0.674826       -18.3629
  22   2.0000      -0.604831       -16.4583
  23   2.0000      -0.602085       -16.3836
  24   2.0000      -0.598012       -16.2727
  25   2.0000      -0.572929       -15.5902
  26   2.0000      -0.524977       -14.2853
  27   2.0000      -0.511732       -13.9249
  28   2.0000      -0.493225       -13.4213
  29   2.0000      -0.488174       -13.2839
  30   2.0000      -0.475254       -12.9323
  31   2.0000      -0.461014       -12.5448
  32   2.0000      -0.449754       -12.2384
  33   2.0000      -0.434700       -11.8288
  34   2.0000      -0.415728       -11.3125
  35   2.0000      -0.411369       -11.1939
  36   2.0000      -0.405809       -11.0426
  37   2.0000      -0.394706       -10.7405
  38   2.0000      -0.373864       -10.1734
  39   2.0000      -0.367624       -10.0035
  40   2.0000      -0.359519        -9.7830
  41   2.0000      -0.357660        -9.7324
  42   2.0000      -0.348556        -9.4847
  43   2.0000      -0.333409        -9.0725
  44   2.0000      -0.329580        -8.9683
  45   2.0000      -0.309137        -8.4121
  46   2.0000      -0.305319        -8.3081
  47   2.0000      -0.272247        -7.4082
  48   2.0000      -0.267104        -7.2683
  49   2.0000      -0.261127        -7.1056
  50   2.0000      -0.239547        -6.5184
  51   0.0000       0.061943         1.6856
  52   0.0000       0.080345         2.1863
  53   0.0000       0.092994         2.5305
  54   0.0000       0.095103         2.5879
  55   0.0000       0.101232         2.7546

MULLIKEN ATOMIC CHARGES
-----------------------
   0 C :    0.304307
   1 C :   -0.264592
   2 C :   -0.307827
   3 C :   -0.030076
   4 O :   -0.514015
   5 H :    0.150096
   6 H :    0.147909
   7 H :    0.160608
   8 H :    0.146761
   9 H :    0.165486
  10 H :    0.158321
  11 H :    0.150514
  12 C :   -0.014127
  13 H :    0.145400
  14 H :    0.153929
  15 O :   -0.537092
  16 C :    0.045623
  17 C :    0.081083
  18 C :   -0.304163
  19 C :   -0.033296
  20 O :   -0.526958
  21 H :    0.188588
  22 O :   -0.606714
  23 H :    0.168607
  24 H :    0.162046
  25 H :    0.151212
  26 H :    0.147423
  27 H :    0.146865
  28 H :    0.364081
Sum of atomic charges:   -0.0000000

LOEWDIN ATOMIC CHARGES
----------------------
   0 C :    0.178137
   1 C :   -0.215738
   2 C :   -0.216754
   3 C :   -0.036828
   4 O :   -0.326431
   5 H :    0.097152
   6 H :    0.115857
   7 H :    0.126139
   8 H :    0.117133
   9 H :    0.117619
  10 H :    0.108404
  11 H :    0.107040
  12 C :   -0.036563
  13 H :    0.108576
  14 H :    0.110068
  15 O :   -0.338795
  16 C :    0.000120
  17 C :    0.033209
  18 C :   -0.241334
  19 C :   -0.040064
  20 O :   -0.328294
  21 H :    0.125594
  22 O :   -0.417262
  23 H :    0.119845
  24 H :    0.126433
  25 H :    0.117078
  26 H :    0.104354
  27 H :    0.102518
  28 H :    0.282786

  Mayer bond orders larger than 0.100000
B(  0-C ,  1-C ) :   0.9406 B(  0-C ,  4-O ) :   0.9059 B(  0-C ,  5-H ) :   0.9257
B(  0-C , 15-O ) :   0.8475 B(  1-C ,  2-C ) :   0.9548 B(  1-C ,  6-H ) :   0.9377
B(  1-C ,  7-H ) :   0.9361 B(  2-C ,  3-C ) :   0.9564 B(  2-C ,  8-H ) :   0.9443
B(  2-C ,  9-H ) :   0.9388 B(  3-C ,  4-O ) :   0.8242 B(  3-C , 10-H ) :   0.9166
B(  3-C , 11-H ) :   0.9411 B( 12-C , 13-H ) :   0.9422 B( 12-C , 14-H ) :   0.9202
B( 12-C , 15-O ) :   0.8366 B( 12-C , 16-C ) :   0.8806 B( 16-C , 17-C ) :   0.9062
B( 16-C , 20-O ) :   0.8274 B( 16-C , 21-H ) :   0.9095 B( 17-C , 18-C ) :   0.9154
B( 17-C , 22-O ) :   0.8808 B( 17-C , 23-H ) :   0.9215 B( 18-C , 19-C ) :   0.9437
B( 18-C , 24-H ) :   0.9370 B( 18-C , 25-H ) :   0.9334 B( 19-C , 20-O ) :   0.8484
B( 19-C , 26-H ) :   0.9347 B( 19-C , 27-H ) :   0.9378 B( 22-O , 28-H ) :   0.7958

FINAL SINGLE POINT ENERGY      -652.864990935683

DIPOLE MOMENT
-------------
                                X             Y             Z
Electronic contribution:      0.38044      -3.34363       0.68304
Nuclear contribution   :     -0.66053       3.80837      -0.87697
                        -----------------------------------------
Total Dipole Moment    :     -0.28009       0.46474      -0.19392
                        -----------------------------------------
Magnitude (a.u.)       :      0.57623
Magnitude (Debye)      :      1.46466

Rotational constants in cm-1:     0.048597     0.017134     0.015477
Rotational constants in MHz :  1456.904398   513.658094   463.976845

                             ****ORCA TERMINATED NORMALLY****
TOTAL RUN TIME: 0 days 1 hours 9 minutes 24 seconds 5 msec
