                         Program Version 4.2.0 -  RELEASE  -
|  1> # Test redundant internal optimization
|  2> #
|  3> ! RKS B3LYP  Opt TightSCF SmallPrint
|  4>
|  5> %basis
|  6>         Basis "6-31G"
|  7> end
|  8>
|  9> %geom
| 10> Constraints
| 11> { D 4  0  15  12  0.0   C } # D for Dihedral angle
| 12> { D 0  15  12  16  240.0   C } # D for Dihedral angle
| 13> { D 0  4  3  2   C } # D for Dihedral angle
| 14> { D 4  3  2  1   C } # D for Dihedral angle
| 15> { D 3  2  1  0   C } # D for Dihedral angle
| 16> { D 2  1  0  4   C } # D for Dihedral angle
| 17> { D 1  0  4  3   C } # D for Dihedral angle
| 18> { D 16  20  19  18   C } # D for Dihedral angle
| 19> { D 20  19  18  17   C } # D for Dihedral angle
| 20> { D 19  18  17  16   C } # D for Dihedral angle
| 21> { D 18  17  16  20   C } # D for Dihedral angle
| 22> { D 17  16  20  19   C } # D for Dihedral angle
| 23> { D 15  12  16  20   C } # D for Dihedral angle
| 24> end
| 25> end
| 26>
| 27>
| 28> #%pal
| 29> #nprocs 8
| 30> #end
| 31>
| 32> * xyz 0 1
| 33> C  -21.048   26.222   46.251
| 34> C  -20.361   27.558   45.944
| 35> C  -20.329   28.222   47.341
| 36> C  -20.110   27.022   48.296
| 37> O  -20.473   25.807   47.535
| 38> H  -20.833   25.428   45.533
| 39> H  -19.344   27.382   45.576
| 40> H  -20.898   28.157   45.201
| 41> H  -19.543   28.978   47.434
| 42> H  -21.289   28.710   47.548
| 43> H  -20.733   27.082   49.195
| 44> H  -19.064   26.913   48.597
| 45> C  -23.172   26.101   47.783
| 46> H  -22.357   25.822   48.464
| 47> H  -23.666   26.994   48.187
| 48> O  -22.586   26.394   46.375
| 49> C  -24.214   24.948   47.772
| 50> C  -23.566   23.616   47.380
| 51> C  -22.887   23.196   48.706
| 52> C  -23.874   23.709   49.784
| 53> O  -24.733   24.714   49.124
| 54> H  -25.062   25.239   47.150
| 55> H  -24.338   22.892   47.095
| 56> O  -22.561   23.748   46.204
| 57> H  -22.719   22.116   48.773
| 58> H  -21.914   23.693   48.804
| 59> H  -23.363   24.176   50.633
| 60> H  -24.530   22.919   50.159
| 61> H  -21.779   24.469   46.468
| 62> *
| 63>
| 64>                          ****END OF INPUT****
 Total Charge           Charge          ....    0
 Multiplicity           Mult            ....    1
 Number of Electrons    NEL             ....  102
FINAL SINGLE POINT ENERGY      -652.817388315664
FINAL SINGLE POINT ENERGY      -652.845378604109
FINAL SINGLE POINT ENERGY      -652.854098056620
FINAL SINGLE POINT ENERGY      -652.856288792395
FINAL SINGLE POINT ENERGY      -652.856693812052
FINAL SINGLE POINT ENERGY      -652.856770164341
FINAL SINGLE POINT ENERGY      -652.856782319198
FINAL SINGLE POINT ENERGY      -652.856784790348
                    ***********************HURRAY********************

CARTESIAN COORDINATES (ANGSTROEM)
---------------------------------
  C    -21.044002   26.285397   46.342690
  C    -20.457197   27.649767   45.975619
  C    -20.305115   28.312593   47.365450
  C    -19.930687   27.127847   48.283369
  O    -20.327942   25.897988   47.536576
  H    -20.859836   25.506303   45.597154
  H    -19.481815   27.508252   45.495714
  H    -21.112739   28.203832   45.301183
  H    -19.543050   29.097680   47.376323
  H    -21.256405   28.758613   47.672416
  H    -20.454111   27.139073   49.242896
  H    -18.854648   27.044999   48.458272
  C    -23.126010   26.108297   47.791729
  H    -22.371054   25.876230   48.548395
  H    -23.664698   27.010788   48.098665
  O    -22.482023   26.383338   46.512108
  C    -24.135105   24.953016   47.698996
  C    -23.569567   23.560550   47.353826
  C    -22.954835   23.113927   48.722554
  C    -23.939252   23.723404   49.744285
  O    -24.705997   24.777736   49.034533
  H    -24.954856   25.228292   47.031130
  H    -24.407190   22.908751   47.091087
  O    -22.662232   23.446694   46.241299
  H    -22.877441   22.026322   48.799808
  H    -21.948238   23.538988   48.822193
  H    -23.439428   24.171496   50.609372
  H    -24.668537   22.990807   50.103391
  H    -21.811989   23.876020   46.460966

 Multiplicity           Mult            ....    1
 Number of Electrons    NEL             ....  102
 Basis Dimension        Dim             ....  149

ORBITAL ENERGIES
----------------

  NO   OCC          E(Eh)            E(eV)
   0   2.0000     -19.162739      -521.4446
   1   2.0000     -19.139637      -520.8160
   2   2.0000     -19.137251      -520.7511
   3   2.0000     -19.133633      -520.6526
   4   2.0000     -10.288108      -279.9537
   5   2.0000     -10.241309      -278.6802
   6   2.0000     -10.234602      -278.4977
   7   2.0000     -10.226649      -278.2813
   8   2.0000     -10.225659      -278.2543
   9   2.0000     -10.224966      -278.2355
  10   2.0000     -10.197015      -277.4749
  11   2.0000     -10.191047      -277.3125
  12   2.0000     -10.184581      -277.1365
  13   2.0000      -1.063584       -28.9416
  14   2.0000      -1.026147       -27.9229
  15   2.0000      -1.008393       -27.4398
  16   2.0000      -0.996672       -27.1208
  17   2.0000      -0.797173       -21.6922
  18   2.0000      -0.772763       -21.0279
  19   2.0000      -0.767385       -20.8816
  20   2.0000      -0.735569       -20.0159
  21   2.0000      -0.676350       -18.4044
  22   2.0000      -0.610833       -16.6216
  23   2.0000      -0.607234       -16.5237
  24   2.0000      -0.596105       -16.2209
  25   2.0000      -0.567342       -15.4382
  26   2.0000      -0.523729       -14.2514
  27   2.0000      -0.520940       -14.1755
  28   2.0000      -0.503465       -13.7000
  29   2.0000      -0.490728       -13.3534
  30   2.0000      -0.471909       -12.8413
  31   2.0000      -0.459564       -12.5054
  32   2.0000      -0.443897       -12.0791
  33   2.0000      -0.428611       -11.6631
  34   2.0000      -0.424722       -11.5573
  35   2.0000      -0.412317       -11.2197
  36   2.0000      -0.408706       -11.1214
  37   2.0000      -0.402051       -10.9404
  38   2.0000      -0.379980       -10.3398
  39   2.0000      -0.368014       -10.0142
  40   2.0000      -0.364428        -9.9166
  41   2.0000      -0.356393        -9.6979
  42   2.0000      -0.353041        -9.6067
  43   2.0000      -0.337221        -9.1762
  44   2.0000      -0.325254        -8.8506
  45   2.0000      -0.307806        -8.3758
  46   2.0000      -0.304458        -8.2847
  47   2.0000      -0.276076        -7.5124
  48   2.0000      -0.263573        -7.1722
  49   2.0000      -0.257638        -7.0107
  50   2.0000      -0.230691        -6.2774
  51   0.0000       0.057256         1.5580
  52   0.0000       0.076799         2.0898
  53   0.0000       0.087836         2.3901
  54   0.0000       0.094438         2.5698
  55   0.0000       0.102011         2.7759

MULLIKEN ATOMIC CHARGES
-----------------------
   0 C :    0.283247
   1 C :   -0.255979
   2 C :   -0.308529
   3 C :   -0.018821
   4 O :   -0.527403
   5 H :    0.157812
   6 H :    0.145605
   7 H :    0.166823
   8 H :    0.150890
   9 H :    0.160507
  10 H :    0.148855
  11 H :    0.155592
  12 C :   -0.027919
  13 H :    0.150063
  14 H :    0.151612
  15 O :   -0.535076
  16 C :    0.084988
  17 C :    0.098734
  18 C :   -0.337168
  19 C :   -0.009040
  20 O :   -0.522992
  21 H :    0.159052
  22 H :    0.162529
  23 O :   -0.602993
  24 H :    0.156030
  25 H :    0.153154
  26 H :    0.137757
  27 H :    0.148135
  28 H :    0.374533
Sum of atomic charges:    0.0000000

LOEWDIN ATOMIC CHARGES
----------------------
   0 C :    0.173189
   1 C :   -0.218107
   2 C :   -0.218367
   3 C :   -0.030826
   4 O :   -0.330652
   5 H :    0.101070
   6 H :    0.114216
   7 H :    0.129153
   8 H :    0.119326
   9 H :    0.117604
  10 H :    0.104512
  11 H :    0.109424
  12 C :   -0.048144
  13 H :    0.104446
  14 H :    0.109037
  15 O :   -0.340907
  16 C :    0.018778
  17 C :    0.038716
  18 C :   -0.247225
  19 C :   -0.031053
  20 O :   -0.324142
  21 H :    0.115357
  22 H :    0.115725
  23 O :   -0.401539
  24 H :    0.122227
  25 H :    0.113135
  26 H :    0.099418
  27 H :    0.105181
  28 H :    0.280448

  Mayer bond orders larger than 0.100000
B(  0-C ,  1-C ) :   0.9308 B(  0-C ,  4-O ) :   0.8946 B(  0-C ,  5-H ) :   0.9159
B(  0-C , 15-O ) :   0.8549 B(  1-C ,  2-C ) :   0.9522 B(  1-C ,  6-H ) :   0.9348
B(  1-C ,  7-H ) :   0.9353 B(  2-C ,  3-C ) :   0.9541 B(  2-C ,  8-H ) :   0.9441
B(  2-C ,  9-H ) :   0.9445 B(  3-C ,  4-O ) :   0.8201 B(  3-C , 10-H ) :   0.9328
B(  3-C , 11-H ) :   0.9404 B( 12-C , 13-H ) :   0.9114 B( 12-C , 14-H ) :   0.9311
B( 12-C , 15-O ) :   0.8233 B( 12-C , 16-C ) :   0.8985 B( 16-C , 17-C ) :   0.8864
B( 16-C , 20-O ) :   0.8373 B( 16-C , 21-H ) :   0.9329 B( 17-C , 18-C ) :   0.9191
B( 17-C , 22-H ) :   0.9332 B( 17-C , 23-O ) :   0.9235 B( 18-C , 19-C ) :   0.9407
B( 18-C , 24-H ) :   0.9419 B( 18-C , 25-H ) :   0.9357 B( 19-C , 20-O ) :   0.8374
B( 19-C , 26-H ) :   0.9339 B( 19-C , 27-H ) :   0.9390 B( 23-O , 28-H ) :   0.7731

FINAL SINGLE POINT ENERGY      -652.856785073491

DIPOLE MOMENT
-------------
                                X             Y             Z
Electronic contribution:     -3.26404      -2.39106      -2.49515
Nuclear contribution   :      4.41573       3.08339       3.18275
                        -----------------------------------------
Total Dipole Moment    :      1.15170       0.69232       0.68761
                        -----------------------------------------
Magnitude (a.u.)       :      1.50948
Magnitude (Debye)      :      3.83678

Rotational constants in cm-1:     0.049526     0.015892     0.015074
Rotational constants in MHz :  1484.766300   476.433245   451.914409

                             ****ORCA TERMINATED NORMALLY****
TOTAL RUN TIME: 0 days 0 hours 28 minutes 3 seconds 577 msec
