                         Program Version 4.2.0 -  RELEASE  -
|  1> # Test redundant internal optimization
|  2> #
|  3> ! RKS B3LYP  Opt TightSCF SmallPrint
|  4>
|  5> %basis
|  6>         Basis "6-31G"
|  7> end
|  8>
|  9> %geom
| 10> Constraints
| 11> { D 4  0  15  12  150.0   C } # D for Dihedral angle
| 12> { D 0  15  12  16  150.0   C } # D for Dihedral angle
| 13> { D 0  4  3  2   C } # D for Dihedral angle
| 14> { D 4  3  2  1   C } # D for Dihedral angle
| 15> { D 3  2  1  0   C } # D for Dihedral angle
| 16> { D 2  1  0  4   C } # D for Dihedral angle
| 17> { D 1  0  4  3   C } # D for Dihedral angle
| 18> { D 16  20  19  18   C } # D for Dihedral angle
| 19> { D 20  19  18  17   C } # D for Dihedral angle
| 20> { D 19  18  17  16   C } # D for Dihedral angle
| 21> { D 18  17  16  20   C } # D for Dihedral angle
| 22> { D 17  16  20  19   C } # D for Dihedral angle
| 23> { D 15  12  16  20   C } # D for Dihedral angle
| 24> end
| 25> end
| 26>
| 27>
| 28> #%pal
| 29> #nprocs 8
| 30> #end
| 31>
| 32> * xyz 0 1
| 33> C  -21.048   26.222   46.251
| 34> C  -20.361   27.558   45.944
| 35> C  -20.329   28.222   47.341
| 36> C  -20.110   27.022   48.296
| 37> O  -20.473   25.807   47.535
| 38> H  -20.833   25.428   45.533
| 39> H  -19.344   27.382   45.576
| 40> H  -20.898   28.157   45.201
| 41> H  -19.543   28.978   47.434
| 42> H  -21.289   28.710   47.548
| 43> H  -20.733   27.082   49.195
| 44> H  -19.064   26.913   48.597
| 45> C  -23.210   27.459   45.431
| 46> H  -23.207   28.434   45.934
| 47> H  -22.621   27.547   44.509
| 48> O  -22.586   26.394   46.375
| 49> C  -24.672   27.121   45.028
| 50> C  -25.214   28.128   44.008
| 51> C  -24.572   27.622   42.695
| 52> C  -24.559   26.084   42.880
| 53> O  -24.726   25.833   44.327
| 54> H  -25.278   27.020   45.931
| 55> H  -26.307   28.060   43.955
| 56> O  -24.832   29.597   44.338
| 57> H  -25.128   27.930   41.804
| 58> H  -23.550   28.008   42.602
| 59> H  -23.621   25.629   42.543
| 60> H  -25.394   25.595   42.369
| 61> H  -23.742   29.691   44.395
| 62> *
| 63>
| 64>                          ****END OF INPUT****
 Total Charge           Charge          ....    0
 Multiplicity           Mult            ....    1
 Number of Electrons    NEL             ....  102
FINAL SINGLE POINT ENERGY      -652.818513687242
FINAL SINGLE POINT ENERGY      -652.842342238499
FINAL SINGLE POINT ENERGY      -652.847226991072
FINAL SINGLE POINT ENERGY      -652.848115983216
FINAL SINGLE POINT ENERGY      -652.848269665867
FINAL SINGLE POINT ENERGY      -652.848308342314
FINAL SINGLE POINT ENERGY      -652.848313571791
FINAL SINGLE POINT ENERGY      -652.848314519211
                    ***********************HURRAY********************

CARTESIAN COORDINATES (ANGSTROEM)
---------------------------------
  C    -21.053109   26.283039   46.209021
  C    -20.183809   27.523370   45.996877
  C    -20.236987   28.200064   47.392844
  C    -20.276187   26.989306   48.349945
  O    -20.691568   25.831379   47.522426
  H    -20.861193   25.454232   45.522945
  H    -19.163362   27.195290   45.767645
  H    -20.512451   28.179503   45.187499
  H    -19.375609   28.849747   47.574510
  H    -21.146428   28.802585   47.488973
  H    -20.991231   27.110846   49.167506
  H    -19.292977   26.743510   48.761926
  C    -23.059430   27.562748   45.363899
  H    -23.085530   28.534620   45.875676
  H    -22.473841   27.670950   44.438479
  O    -22.489000   26.545229   46.222695
  C    -24.484354   27.126563   45.023446
  C    -25.230723   28.082917   44.078271
  C    -24.720509   27.617262   42.681377
  C    -24.567058   26.092074   42.867562
  O    -24.528533   25.842679   44.331328
  H    -25.022120   26.973257   45.963243
  H    -26.305697   27.912222   44.167761
  O    -25.060265   29.495350   44.353738
  H    -25.413038   27.882836   41.878337
  H    -23.754616   28.094208   42.465787
  H    -23.653933   25.695591   42.411575
  H    -25.424097   25.538846   42.471627
  H    -24.186346   29.802776   44.038081

 Multiplicity           Mult            ....    1
 Number of Electrons    NEL             ....  102
 Basis Dimension        Dim             ....  149

ORBITAL ENERGIES
----------------

  NO   OCC          E(Eh)            E(eV)
   0   2.0000     -19.152517      -521.1665
   1   2.0000     -19.137287      -520.7521
   2   2.0000     -19.136426      -520.7286
   3   2.0000     -19.133991      -520.6624
   4   2.0000     -10.277972      -279.6778
   5   2.0000     -10.246773      -278.8289
   6   2.0000     -10.233165      -278.4586
   7   2.0000     -10.231268      -278.4069
   8   2.0000     -10.229570      -278.3608
   9   2.0000     -10.224720      -278.2288
  10   2.0000     -10.198299      -277.5098
  11   2.0000     -10.192372      -277.3485
  12   2.0000     -10.191456      -277.3236
  13   2.0000      -1.050057       -28.5735
  14   2.0000      -1.034985       -28.1634
  15   2.0000      -1.016353       -27.6564
  16   2.0000      -0.989252       -26.9189
  17   2.0000      -0.788977       -21.4692
  18   2.0000      -0.784357       -21.3434
  19   2.0000      -0.769680       -20.9441
  20   2.0000      -0.731914       -19.9164
  21   2.0000      -0.684343       -18.6219
  22   2.0000      -0.613301       -16.6888
  23   2.0000      -0.604313       -16.4442
  24   2.0000      -0.592064       -16.1109
  25   2.0000      -0.572876       -15.5888
  26   2.0000      -0.529182       -14.3998
  27   2.0000      -0.508458       -13.8359
  28   2.0000      -0.502738       -13.6802
  29   2.0000      -0.495850       -13.4928
  30   2.0000      -0.471651       -12.8343
  31   2.0000      -0.461598       -12.5607
  32   2.0000      -0.445032       -12.1099
  33   2.0000      -0.439410       -11.9570
  34   2.0000      -0.430281       -11.7086
  35   2.0000      -0.413922       -11.2634
  36   2.0000      -0.410971       -11.1831
  37   2.0000      -0.400406       -10.8956
  38   2.0000      -0.380890       -10.3645
  39   2.0000      -0.378490       -10.2992
  40   2.0000      -0.363097        -9.8804
  41   2.0000      -0.355621        -9.6769
  42   2.0000      -0.350904        -9.5486
  43   2.0000      -0.331483        -9.0201
  44   2.0000      -0.316151        -8.6029
  45   2.0000      -0.311459        -8.4752
  46   2.0000      -0.294127        -8.0036
  47   2.0000      -0.272418        -7.4129
  48   2.0000      -0.259571        -7.0633
  49   2.0000      -0.251312        -6.8385
  50   2.0000      -0.237643        -6.4666
  51   0.0000       0.045653         1.2423
  52   0.0000       0.069899         1.9020
  53   0.0000       0.084613         2.3024
  54   0.0000       0.091473         2.4891
  55   0.0000       0.104066         2.8318

MULLIKEN ATOMIC CHARGES
-----------------------
   0 C :    0.314902
   1 C :   -0.292282
   2 C :   -0.303320
   3 C :    0.000789
   4 O :   -0.494821
   5 H :    0.153341
   6 H :    0.151700
   7 H :    0.136917
   8 H :    0.144071
   9 H :    0.154814
  10 H :    0.154508
  11 H :    0.142419
  12 C :   -0.014047
  13 H :    0.132153
  14 H :    0.112205
  15 O :   -0.510352
  16 C :    0.095660
  17 C :    0.076963
  18 C :   -0.323612
  19 C :   -0.011930
  20 O :   -0.499458
  21 H :    0.171090
  22 H :    0.172903
  23 O :   -0.599283
  24 H :    0.159158
  25 H :    0.127486
  26 H :    0.141371
  27 H :    0.152521
  28 H :    0.354135
Sum of atomic charges:   -0.0000000

LOEWDIN ATOMIC CHARGES
----------------------
   0 C :    0.186054
   1 C :   -0.235041
   2 C :   -0.217803
   3 C :   -0.026607
   4 O :   -0.302697
   5 H :    0.104008
   6 H :    0.119207
   7 H :    0.110514
   8 H :    0.115151
   9 H :    0.112940
  10 H :    0.109415
  11 H :    0.102895
  12 C :   -0.050686
  13 H :    0.096235
  14 H :    0.083519
  15 O :   -0.325418
  16 C :    0.021785
  17 C :    0.033556
  18 C :   -0.242478
  19 C :   -0.031142
  20 O :   -0.309401
  21 H :    0.123193
  22 H :    0.121469
  23 O :   -0.407920
  24 H :    0.123113
  25 H :    0.100954
  26 H :    0.101383
  27 H :    0.107206
  28 H :    0.276592

  Mayer bond orders larger than 0.100000
B(  0-C ,  1-C ) :   0.9303 B(  0-C ,  4-O ) :   0.9329 B(  0-C ,  5-H ) :   0.9235
B(  0-C , 15-O ) :   0.8452 B(  1-C ,  2-C ) :   0.9489 B(  1-C ,  6-H ) :   0.9342
B(  1-C ,  7-H ) :   0.9291 B(  2-C ,  3-C ) :   0.9541 B(  2-C ,  8-H ) :   0.9452
B(  2-C ,  9-H ) :   0.9445 B(  3-C ,  4-O ) :   0.8397 B(  3-C , 10-H ) :   0.9340
B(  3-C , 11-H ) :   0.9396 B( 12-C , 13-H ) :   0.9012 B( 12-C , 14-H ) :   0.9138
B( 12-C , 15-O ) :   0.8566 B( 12-C , 16-C ) :   0.8960 B( 16-C , 17-C ) :   0.8726
B( 16-C , 20-O ) :   0.8731 B( 16-C , 21-H ) :   0.9279 B( 17-C , 18-C ) :   0.9256
B( 17-C , 22-H ) :   0.9316 B( 17-C , 23-O ) :   0.8950 B( 18-C , 19-C ) :   0.9376
B( 18-C , 24-H ) :   0.9414 B( 18-C , 25-H ) :   0.9406 B( 19-C , 20-O ) :   0.8529
B( 19-C , 26-H ) :   0.9319 B( 19-C , 27-H ) :   0.9371 B( 23-O , 28-H ) :   0.7997

FINAL SINGLE POINT ENERGY      -652.848314510128

DIPOLE MOMENT
-------------
                                X             Y             Z
Electronic contribution:     -3.28014      -3.88926       1.99690
Nuclear contribution   :      4.20027       5.21690      -3.19852
                        -----------------------------------------
Total Dipole Moment    :      0.92013       1.32764      -1.20162
                        -----------------------------------------
Magnitude (a.u.)       :      2.01325
Magnitude (Debye)      :      5.11727

Rotational constants in cm-1:     0.054521     0.012875     0.011702
Rotational constants in MHz :  1634.494973   385.995183   350.805428

                             ****ORCA TERMINATED NORMALLY****
TOTAL RUN TIME: 0 days 1 hours 45 minutes 26 seconds 951 msec
