                         Program Version 4.2.0 -  RELEASE  -
|  1> # Test redundant internal optimization
|  2> #
|  3> ! RKS B3LYP  Opt TightSCF SmallPrint
|  4>
|  5> %basis
|  6>         Basis "6-31G"
|  7> end
|  8>
|  9> %geom
| 10> Constraints
| 11> { D 4  0  15  12  60.0   C } # D for Dihedral angle
| 12> { D 0  15  12  16  255.0   C } # D for Dihedral angle
| 13> { D 0  4  3  2   C } # D for Dihedral angle
| 14> { D 4  3  2  1   C } # D for Dihedral angle
| 15> { D 3  2  1  0   C } # D for Dihedral angle
| 16> { D 2  1  0  4   C } # D for Dihedral angle
| 17> { D 1  0  4  3   C } # D for Dihedral angle
| 18> { D 16  20  19  18   C } # D for Dihedral angle
| 19> { D 20  19  18  17   C } # D for Dihedral angle
| 20> { D 19  18  17  16   C } # D for Dihedral angle
| 21> { D 18  17  16  20   C } # D for Dihedral angle
| 22> { D 17  16  20  19   C } # D for Dihedral angle
| 23> { D 15  12  16  20   C } # D for Dihedral angle
| 24> end
| 25> end
| 26>
| 27>
| 28> #%pal
| 29> #nprocs 8
| 30> #end
| 31>
| 32> * xyz 0 1
| 33> C  -21.048   26.222   46.251
| 34> C  -20.361   27.558   45.944
| 35> C  -20.329   28.222   47.341
| 36> C  -20.110   27.022   48.296
| 37> O  -20.473   25.807   47.535
| 38> H  -20.833   25.428   45.533
| 39> H  -19.344   27.382   45.576
| 40> H  -20.898   28.157   45.201
| 41> H  -19.543   28.978   47.434
| 42> H  -21.289   28.710   47.548
| 43> H  -20.733   27.082   49.195
| 44> H  -19.064   26.913   48.597
| 45> C  -23.051   27.452   47.413
| 46> H  -22.201   28.090   47.685
| 47> H  -23.836   28.089   46.987
| 48> O  -22.586   26.394   46.375
| 49> C  -23.614   26.811   48.712
| 50> C  -24.752   25.832   48.401
| 51> C  -23.970   24.579   47.940
| 52> C  -22.703   24.607   48.830
| 53> O  -22.592   25.984   49.361
| 54> H  -23.879   27.602   49.415
| 55> O  -25.560   25.528   49.692
| 56> H  -25.445   26.204   47.639
| 57> H  -24.542   23.653   48.058
| 58> H  -23.699   24.673   46.881
| 59> H  -21.792   24.363   48.273
| 60> H  -22.782   23.936   49.691
| 61> H  -24.886   25.152   50.470
| 62> *
| 63>
| 64>                          ****END OF INPUT****
 Total Charge           Charge          ....    0
 Multiplicity           Mult            ....    1
 Number of Electrons    NEL             ....  102
FINAL SINGLE POINT ENERGY      -652.792230148439
FINAL SINGLE POINT ENERGY      -652.834573298039
FINAL SINGLE POINT ENERGY      -652.853753051961
FINAL SINGLE POINT ENERGY      -652.857837138937
FINAL SINGLE POINT ENERGY      -652.858920390782
FINAL SINGLE POINT ENERGY      -652.859138939290
FINAL SINGLE POINT ENERGY      -652.859189640125
FINAL SINGLE POINT ENERGY      -652.859195982749
FINAL SINGLE POINT ENERGY      -652.859195877728
                    ***********************HURRAY********************

CARTESIAN COORDINATES (ANGSTROEM)
---------------------------------
  C    -21.103830   26.428267   46.329970
  C    -20.318250   27.678673   45.908545
  C    -19.972079   28.328185   47.282920
  C    -19.748108   27.088237   48.187657
  O    -20.387180   25.948458   47.482773
  H    -21.058718   25.629639   45.587581
  H    -19.405471   27.360433   45.393890
  H    -20.889956   28.331796   45.244372
  H    -19.072769   28.950272   47.226288
  H    -20.783272   28.964233   47.643791
  H    -20.209908   27.174690   49.173576
  H    -18.688534   26.839095   48.294669
  C    -23.181679   27.433786   47.478235
  H    -22.492063   28.189963   47.859660
  H    -23.984979   27.951861   46.939987
  O    -22.535314   26.570409   46.496625
  C    -23.784343   26.695252   48.678555
  C    -24.874295   25.662438   48.356441
  C    -24.029668   24.403930   48.021269
  C    -22.823845   24.524728   48.986912
  O    -22.790275   25.942166   49.435852
  H    -24.188953   27.460972   49.352477
  O    -25.742218   25.458480   49.508524
  H    -25.541286   25.964136   47.548241
  H    -24.613024   23.491932   48.176494
  H    -23.698968   24.457943   46.982190
  H    -21.868386   24.303496   48.511254
  H    -22.940928   23.912215   49.887732
  H    -25.186701   25.284318   50.297519

 Multiplicity           Mult            ....    1
 Number of Electrons    NEL             ....  102
 Basis Dimension        Dim             ....  149

ORBITAL ENERGIES
----------------

  NO   OCC          E(Eh)            E(eV)
   0   2.0000     -19.145798      -520.9836
   1   2.0000     -19.144632      -520.9519
   2   2.0000     -19.133546      -520.6503
   3   2.0000     -19.129929      -520.5518
   4   2.0000     -10.282699      -279.8065
   5   2.0000     -10.233858      -278.4774
   6   2.0000     -10.230818      -278.3947
   7   2.0000     -10.228814      -278.3402
   8   2.0000     -10.227280      -278.2984
   9   2.0000     -10.211839      -277.8783
  10   2.0000     -10.194620      -277.4097
  11   2.0000     -10.192398      -277.3493
  12   2.0000     -10.170496      -276.7533
  13   2.0000      -1.053399       -28.6644
  14   2.0000      -1.026657       -27.9367
  15   2.0000      -0.999794       -27.2058
  16   2.0000      -0.993071       -27.0228
  17   2.0000      -0.789734       -21.4898
  18   2.0000      -0.777012       -21.1436
  19   2.0000      -0.759758       -20.6741
  20   2.0000      -0.732460       -19.9312
  21   2.0000      -0.675112       -18.3707
  22   2.0000      -0.606886       -16.5142
  23   2.0000      -0.602168       -16.3858
  24   2.0000      -0.590402       -16.0657
  25   2.0000      -0.563938       -15.3455
  26   2.0000      -0.523296       -14.2396
  27   2.0000      -0.508176       -13.8282
  28   2.0000      -0.494014       -13.4428
  29   2.0000      -0.485583       -13.2134
  30   2.0000      -0.468816       -12.7571
  31   2.0000      -0.458170       -12.4674
  32   2.0000      -0.443489       -12.0680
  33   2.0000      -0.430313       -11.7094
  34   2.0000      -0.424850       -11.5608
  35   2.0000      -0.414573       -11.2811
  36   2.0000      -0.397962       -10.8291
  37   2.0000      -0.384557       -10.4643
  38   2.0000      -0.381129       -10.3711
  39   2.0000      -0.362877        -9.8744
  40   2.0000      -0.359962        -9.7951
  41   2.0000      -0.355288        -9.6679
  42   2.0000      -0.347415        -9.4536
  43   2.0000      -0.325451        -8.8560
  44   2.0000      -0.313925        -8.5423
  45   2.0000      -0.307332        -8.3629
  46   2.0000      -0.296530        -8.0690
  47   2.0000      -0.270332        -7.3561
  48   2.0000      -0.262663        -7.1474
  49   2.0000      -0.254908        -6.9364
  50   2.0000      -0.232500        -6.3266
  51   0.0000       0.069055         1.8791
  52   0.0000       0.080422         2.1884
  53   0.0000       0.093823         2.5531
  54   0.0000       0.102675         2.7939
  55   0.0000       0.107692         2.9305

MULLIKEN ATOMIC CHARGES
-----------------------
   0 C :    0.307040
   1 C :   -0.273789
   2 C :   -0.323371
   3 C :   -0.011170
   4 O :   -0.503212
   5 H :    0.164114
   6 H :    0.155020
   7 H :    0.150937
   8 H :    0.146380
   9 H :    0.153450
  10 H :    0.170147
  11 H :    0.145760
  12 C :   -0.012064
  13 H :    0.135683
  14 H :    0.142925
  15 O :   -0.533142
  16 C :    0.080414
  17 C :    0.078495
  18 C :   -0.293664
  19 C :   -0.028559
  20 O :   -0.530663
  21 H :    0.148706
  22 O :   -0.605621
  23 H :    0.149693
  24 H :    0.145688
  25 H :    0.172573
  26 H :    0.177738
  27 H :    0.129067
  28 H :    0.361424
Sum of atomic charges:   -0.0000000

LOEWDIN ATOMIC CHARGES
----------------------
   0 C :    0.176653
   1 C :   -0.226969
   2 C :   -0.224556
   3 C :   -0.033307
   4 O :   -0.313847
   5 H :    0.111848
   6 H :    0.121096
   7 H :    0.119688
   8 H :    0.116002
   9 H :    0.108839
  10 H :    0.116400
  11 H :    0.104439
  12 C :   -0.039391
  13 H :    0.101161
  14 H :    0.108944
  15 O :   -0.329500
  16 C :    0.007414
  17 C :    0.037904
  18 C :   -0.241956
  19 C :   -0.038371
  20 O :   -0.332205
  21 H :    0.113048
  22 O :   -0.418912
  23 H :    0.114753
  24 H :    0.117303
  25 H :    0.128912
  26 H :    0.120550
  27 H :    0.092967
  28 H :    0.281094

  Mayer bond orders larger than 0.100000
B(  0-C ,  1-C ) :   0.9215 B(  0-C ,  4-O ) :   0.9060 B(  0-C ,  5-H ) :   0.9364
B(  0-C , 15-O ) :   0.8785 B(  1-C ,  2-C ) :   0.9553 B(  1-C ,  6-H ) :   0.9349
B(  1-C ,  7-H ) :   0.9377 B(  2-C ,  3-C ) :   0.9480 B(  2-C ,  8-H ) :   0.9440
B(  2-C ,  9-H ) :   0.9354 B(  3-C ,  4-O ) :   0.8291 B(  3-C , 10-H ) :   0.9248
B(  3-C , 11-H ) :   0.9390 B( 12-C , 13-H ) :   0.9082 B( 12-C , 14-H ) :   0.9285
B( 12-C , 15-O ) :   0.8534 B( 12-C , 16-C ) :   0.8826 B( 16-C , 17-C ) :   0.9107
B( 16-C , 20-O ) :   0.8795 B( 16-C , 21-H ) :   0.9171 B( 17-C , 18-C ) :   0.9244
B( 17-C , 22-O ) :   0.8887 B( 17-C , 23-H ) :   0.9357 B( 18-C , 19-C ) :   0.9473
B( 18-C , 24-H ) :   0.9376 B( 18-C , 25-H ) :   0.9199 B( 19-C , 20-O ) :   0.8250
B( 19-C , 26-H ) :   0.9170 B( 19-C , 27-H ) :   0.9380 B( 22-O , 28-H ) :   0.7968

FINAL SINGLE POINT ENERGY      -652.859194574234

DIPOLE MOMENT
-------------
                                X             Y             Z
Electronic contribution:     -2.96472      -2.30563       1.38581
Nuclear contribution   :      3.89033       3.10984      -1.83357
                        -----------------------------------------
Total Dipole Moment    :      0.92562       0.80421      -0.44777
                        -----------------------------------------
Magnitude (a.u.)       :      1.30538
Magnitude (Debye)      :      3.31802

Rotational constants in cm-1:     0.057567     0.016374     0.015743
Rotational constants in MHz :  1725.811578   490.893909   471.968285

                             ****ORCA TERMINATED NORMALLY****
TOTAL RUN TIME: 0 days 0 hours 58 minutes 16 seconds 8 msec
