                         Program Version 4.2.0 -  RELEASE  -
|  1> # Test redundant internal optimization
|  2> #
|  3> ! RKS B3LYP  Opt TightSCF SmallPrint
|  4>
|  5> %basis
|  6>         Basis "6-31G"
|  7> end
|  8>
|  9> %geom
| 10> Constraints
| 11> { D 4  0  15  12  270.0   C } # D for Dihedral angle
| 12> { D 0  15  12  16  225.0   C } # D for Dihedral angle
| 13> { D 0  4  3  2   C } # D for Dihedral angle
| 14> { D 4  3  2  1   C } # D for Dihedral angle
| 15> { D 3  2  1  0   C } # D for Dihedral angle
| 16> { D 2  1  0  4   C } # D for Dihedral angle
| 17> { D 1  0  4  3   C } # D for Dihedral angle
| 18> { D 16  20  19  18   C } # D for Dihedral angle
| 19> { D 20  19  18  17   C } # D for Dihedral angle
| 20> { D 19  18  17  16   C } # D for Dihedral angle
| 21> { D 18  17  16  20   C } # D for Dihedral angle
| 22> { D 17  16  20  19   C } # D for Dihedral angle
| 23> { D 15  12  16  20   C } # D for Dihedral angle
| 24> end
| 25> end
| 26>
| 27>
| 28> #%pal
| 29> #nprocs 8
| 30> #end
| 31>
| 32> * xyz 0 1
| 33> C  -21.048   26.222   46.251
| 34> C  -20.361   27.558   45.944
| 35> C  -20.329   28.222   47.341
| 36> C  -20.110   27.022   48.296
| 37> O  -20.473   25.807   47.535
| 38> H  -20.833   25.428   45.533
| 39> H  -19.344   27.382   45.576
| 40> H  -20.898   28.157   45.201
| 41> H  -19.543   28.978   47.434
| 42> H  -21.289   28.710   47.548
| 43> H  -20.733   27.082   49.195
| 44> H  -19.064   26.913   48.597
| 45> C  -23.420   25.119   46.072
| 46> H  -22.782   24.380   45.571
| 47> H  -23.793   24.674   47.004
| 48> O  -22.586   26.394   46.375
| 49> C  -24.645   25.405   45.160
| 50> C  -25.507   24.151   44.978
| 51> C  -26.305   24.123   46.303
| 52> C  -26.531   25.625   46.609
| 53> O  -25.544   26.372   45.799
| 54> H  -24.299   25.856   44.228
| 55> H  -26.181   24.278   44.123
| 56> O  -24.670   22.862   44.752
| 57> H  -27.246   23.569   46.221
| 58> H  -25.707   23.654   47.093
| 59> H  -26.379   25.865   47.668
| 60> H  -27.524   25.969   46.306
| 61> H  -23.988   22.713   45.596
| 62> *
| 63>
| 64>                          ****END OF INPUT****
 Total Charge           Charge          ....    0
 Multiplicity           Mult            ....    1
 Number of Electrons    NEL             ....  102
FINAL SINGLE POINT ENERGY      -652.829411341539
FINAL SINGLE POINT ENERGY      -652.853521915838
FINAL SINGLE POINT ENERGY      -652.858355003316
FINAL SINGLE POINT ENERGY      -652.859174364571
FINAL SINGLE POINT ENERGY      -652.859319805223
FINAL SINGLE POINT ENERGY      -652.859349418275
FINAL SINGLE POINT ENERGY      -652.859352654140
                    ***********************HURRAY********************

CARTESIAN COORDINATES (ANGSTROEM)
---------------------------------
  C    -21.055043   26.147512   46.234502
  C    -20.517425   27.544641   45.921959
  C    -20.512206   28.203118   47.321668
  C    -20.146272   27.028730   48.257081
  O    -20.412488   25.791635   47.482082
  H    -20.795853   25.362057   45.516745
  H    -19.499424   27.459364   45.524214
  H    -21.142910   28.071175   45.198795
  H    -19.800883   29.031372   47.395862
  H    -21.512745   28.580950   47.550235
  H    -20.745469   27.008019   49.170961
  H    -19.084384   27.010482   48.521296
  C    -23.269794   25.055568   46.145695
  H    -22.665442   24.296633   45.627362
  H    -23.578003   24.647815   47.117673
  O    -22.484925   26.255620   46.374205
  C    -24.474508   25.399074   45.273122
  C    -25.402348   24.201357   45.008712
  C    -26.286509   24.190435   46.291978
  C    -26.433457   25.693728   46.614436
  O    -25.350856   26.396146   45.879916
  H    -24.107442   25.849945   44.346702
  H    -26.012786   24.402538   44.125850
  O    -24.732226   22.950764   44.713128
  H    -27.245866   23.692480   46.130077
  H    -25.759254   23.657471   47.094831
  H    -26.338913   25.912119   47.682732
  H    -27.381767   26.103182   46.254005
  H    -24.382803   22.546072   45.533175

 Multiplicity           Mult            ....    1
 Number of Electrons    NEL             ....  102
 Basis Dimension        Dim             ....  149

ORBITAL ENERGIES
----------------

  NO   OCC          E(Eh)            E(eV)
   0   2.0000     -19.151068      -521.1270
   1   2.0000     -19.140046      -520.8271
   2   2.0000     -19.136038      -520.7181
   3   2.0000     -19.133386      -520.6459
   4   2.0000     -10.275382      -279.6074
   5   2.0000     -10.245793      -278.8022
   6   2.0000     -10.229957      -278.3713
   7   2.0000     -10.229744      -278.3655
   8   2.0000     -10.229558      -278.3604
   9   2.0000     -10.219696      -278.0921
  10   2.0000     -10.196286      -277.4550
  11   2.0000     -10.179587      -277.0006
  12   2.0000     -10.179047      -276.9860
  13   2.0000      -1.049885       -28.5688
  14   2.0000      -1.033775       -28.1304
  15   2.0000      -1.015211       -27.6253
  16   2.0000      -0.990465       -26.9519
  17   2.0000      -0.785496       -21.3744
  18   2.0000      -0.780776       -21.2460
  19   2.0000      -0.765474       -20.8296
  20   2.0000      -0.727267       -19.7899
  21   2.0000      -0.678607       -18.4658
  22   2.0000      -0.612230       -16.6596
  23   2.0000      -0.593931       -16.1617
  24   2.0000      -0.589023       -16.0281
  25   2.0000      -0.575901       -15.6711
  26   2.0000      -0.530981       -14.4487
  27   2.0000      -0.510554       -13.8929
  28   2.0000      -0.495603       -13.4861
  29   2.0000      -0.488065       -13.2809
  30   2.0000      -0.466106       -12.6834
  31   2.0000      -0.453739       -12.3469
  32   2.0000      -0.440269       -11.9803
  33   2.0000      -0.438132       -11.9222
  34   2.0000      -0.428081       -11.6487
  35   2.0000      -0.414347       -11.2750
  36   2.0000      -0.407245       -11.0817
  37   2.0000      -0.396233       -10.7821
  38   2.0000      -0.377771       -10.2797
  39   2.0000      -0.363654        -9.8955
  40   2.0000      -0.356524        -9.7015
  41   2.0000      -0.350705        -9.5432
  42   2.0000      -0.342625        -9.3233
  43   2.0000      -0.330780        -9.0010
  44   2.0000      -0.318434        -8.6650
  45   2.0000      -0.315140        -8.5754
  46   2.0000      -0.297260        -8.0889
  47   2.0000      -0.272281        -7.4092
  48   2.0000      -0.266394        -7.2490
  49   2.0000      -0.250059        -6.8045
  50   2.0000      -0.235650        -6.4124
  51   0.0000       0.050427         1.3722
  52   0.0000       0.077190         2.1004
  53   0.0000       0.089209         2.4275
  54   0.0000       0.094965         2.5841
  55   0.0000       0.104742         2.8502

MULLIKEN ATOMIC CHARGES
-----------------------
   0 C :    0.276586
   1 C :   -0.256337
   2 C :   -0.299266
   3 C :   -0.001042
   4 O :   -0.511235
   5 H :    0.139043
   6 H :    0.141995
   7 H :    0.157208
   8 H :    0.138147
   9 H :    0.168884
  10 H :    0.146128
  11 H :    0.139397
  12 C :   -0.009772
  13 H :    0.132584
  14 H :    0.133863
  15 O :   -0.506999
  16 C :    0.105637
  17 C :    0.082200
  18 C :   -0.329815
  19 C :   -0.005302
  20 O :   -0.506481
  21 H :    0.152394
  22 H :    0.167694
  23 O :   -0.601401
  24 H :    0.159075
  25 H :    0.135541
  26 H :    0.147223
  27 H :    0.146393
  28 H :    0.357659
Sum of atomic charges:   -0.0000000

LOEWDIN ATOMIC CHARGES
----------------------
   0 C :    0.171017
   1 C :   -0.216473
   2 C :   -0.216078
   3 C :   -0.027478
   4 O :   -0.330814
   5 H :    0.095043
   6 H :    0.112358
   7 H :    0.124135
   8 H :    0.112129
   9 H :    0.122446
  10 H :    0.104968
  11 H :    0.100811
  12 C :   -0.046287
  13 H :    0.100567
  14 H :    0.096864
  15 O :   -0.313281
  16 C :    0.019242
  17 C :    0.034062
  18 C :   -0.242325
  19 C :   -0.028647
  20 O :   -0.314089
  21 H :    0.115213
  22 H :    0.119523
  23 O :   -0.408879
  24 H :    0.123056
  25 H :    0.104760
  26 H :    0.104401
  27 H :    0.104991
  28 H :    0.278766

  Mayer bond orders larger than 0.100000
B(  0-C ,  1-C ) :   0.9482 B(  0-C ,  4-O ) :   0.9126 B(  0-C ,  5-H ) :   0.9165
B(  0-C , 15-O ) :   0.8676 B(  1-C ,  2-C ) :   0.9585 B(  1-C ,  6-H ) :   0.9399
B(  1-C ,  7-H ) :   0.9361 B(  2-C ,  3-C ) :   0.9548 B(  2-C ,  8-H ) :   0.9454
B(  2-C ,  9-H ) :   0.9428 B(  3-C ,  4-O ) :   0.8396 B(  3-C , 10-H ) :   0.9359
B(  3-C , 11-H ) :   0.9403 B( 12-C , 13-H ) :   0.9036 B( 12-C , 14-H ) :   0.9263
B( 12-C , 15-O ) :   0.8429 B( 12-C , 16-C ) :   0.9007 B( 16-C , 17-C ) :   0.8711
B( 16-C , 20-O ) :   0.8720 B( 16-C , 21-H ) :   0.9317 B( 17-C , 18-C ) :   0.9260
B( 17-C , 22-H ) :   0.9331 B( 17-C , 23-O ) :   0.8956 B( 18-C , 19-C ) :   0.9381
B( 18-C , 24-H ) :   0.9412 B( 18-C , 25-H ) :   0.9400 B( 19-C , 20-O ) :   0.8499
B( 19-C , 26-H ) :   0.9315 B( 19-C , 27-H ) :   0.9384 B( 23-O , 28-H ) :   0.7978

FINAL SINGLE POINT ENERGY      -652.859352885487

DIPOLE MOMENT
-------------
                                X             Y             Z
Electronic contribution:     -0.71576      -1.94230      -1.91846
Nuclear contribution   :      0.53574       1.78393       2.30228
                        -----------------------------------------
Total Dipole Moment    :     -0.18002      -0.15837       0.38382
                        -----------------------------------------
Magnitude (a.u.)       :      0.45255
Magnitude (Debye)      :      1.15030

Rotational constants in cm-1:     0.056282     0.012011     0.011183
Rotational constants in MHz :  1687.297497   360.072547   335.250984

                             ****ORCA TERMINATED NORMALLY****
TOTAL RUN TIME: 0 days 2 hours 15 minutes 23 seconds 511 msec
