                         Program Version 4.2.0 -  RELEASE  -
|  1> # Test redundant internal optimization
|  2> #
|  3> ! RKS B3LYP  Opt TightSCF SmallPrint
|  4>
|  5> %basis
|  6>         Basis "6-31G"
|  7> end
|  8>
|  9> %geom
| 10> Constraints
| 11> { D 4  0  15  12  135.0   C } # D for Dihedral angle
| 12> { D 0  15  12  16  300.0   C } # D for Dihedral angle
| 13> { D 0  4  3  2   C } # D for Dihedral angle
| 14> { D 4  3  2  1   C } # D for Dihedral angle
| 15> { D 3  2  1  0   C } # D for Dihedral angle
| 16> { D 2  1  0  4   C } # D for Dihedral angle
| 17> { D 1  0  4  3   C } # D for Dihedral angle
| 18> { D 16  20  19  18   C } # D for Dihedral angle
| 19> { D 20  19  18  17   C } # D for Dihedral angle
| 20> { D 19  18  17  16   C } # D for Dihedral angle
| 21> { D 18  17  16  20   C } # D for Dihedral angle
| 22> { D 17  16  20  19   C } # D for Dihedral angle
| 23> { D 15  12  16  20   C } # D for Dihedral angle
| 24> end
| 25> end
| 26>
| 27>
| 28> #%pal
| 29> #nprocs 8
| 30> #end
| 31>
| 32> * xyz 0 1
| 33> C  -21.048   26.222   46.251
| 34> C  -20.361   27.558   45.944
| 35> C  -20.329   28.222   47.341
| 36> C  -20.110   27.022   48.296
| 37> O  -20.473   25.807   47.535
| 38> H  -20.833   25.428   45.533
| 39> H  -19.344   27.382   45.576
| 40> H  -20.898   28.157   45.201
| 41> H  -19.543   28.978   47.434
| 42> H  -21.289   28.710   47.548
| 43> H  -20.733   27.082   49.195
| 44> H  -19.064   26.913   48.597
| 45> C  -23.162   27.680   45.721
| 46> H  -22.939   27.670   44.646
| 47> H  -24.252   27.719   45.844
| 48> O  -22.586   26.394   46.375
| 49> C  -22.570   28.981   46.330
| 50> C  -23.243   30.226   45.744
| 51> C  -24.568   30.272   46.541
| 52> C  -24.154   29.755   47.941
| 53> O  -22.864   29.054   47.766
| 54> H  -21.483   28.963   46.227
| 55> H  -22.637   31.115   45.951
| 56> O  -23.467   30.134   44.210
| 57> H  -25.007   31.274   46.580
| 58> H  -25.306   29.601   46.084
| 59> H  -24.886   29.057   48.364
| 60> H  -23.985   30.567   48.654
| 61> H  -24.073   29.251   43.977
| 62> *
| 63>
| 64>                          ****END OF INPUT****
 Total Charge           Charge          ....    0
 Multiplicity           Mult            ....    1
 Number of Electrons    NEL             ....  102
FINAL SINGLE POINT ENERGY      -652.739419846577
FINAL SINGLE POINT ENERGY      -652.812074187603
FINAL SINGLE POINT ENERGY      -652.834112402319
FINAL SINGLE POINT ENERGY      -652.839242316809
FINAL SINGLE POINT ENERGY      -652.840129512477
FINAL SINGLE POINT ENERGY      -652.840341739014
FINAL SINGLE POINT ENERGY      -652.840363308048
FINAL SINGLE POINT ENERGY      -652.840368633514
FINAL SINGLE POINT ENERGY      -652.840369504569
                    ***********************HURRAY********************

CARTESIAN COORDINATES (ANGSTROEM)
---------------------------------
  C    -21.022766   26.270892   46.265520
  C    -19.979618   27.363711   46.000056
  C    -19.834060   28.031179   47.402952
  C    -20.006184   26.822746   48.353835
  O    -20.650774   25.758597   47.552230
  H    -20.943195   25.423130   45.579318
  H    -19.042167   26.874100   45.715862
  H    -20.251425   28.059567   45.201111
  H    -18.857975   28.512401   47.522732
  H    -20.607771   28.773080   47.598935
  H    -20.643270   27.051202   49.212014
  H    -19.052787   26.416613   48.704280
  C    -23.081200   27.816636   45.742696
  H    -22.949934   27.855250   44.648347
  H    -24.135722   27.607167   45.949253
  O    -22.434427   26.625337   46.263008
  C    -22.722586   29.204309   46.278816
  C    -23.587097   30.307853   45.640366
  C    -24.893009   30.236153   46.498508
  C    -24.348500   29.883045   47.901408
  O    -22.976788   29.348131   47.707699
  H    -21.667576   29.420575   46.124442
  H    -23.094641   31.272005   45.788820
  O    -23.779951   30.216347   44.209972
  H    -25.446897   31.178184   46.481996
  H    -25.550112   29.447390   46.109277
  H    -24.950892   29.129305   48.417048
  H    -24.258615   30.764553   48.543395
  H    -24.437064   29.524543   43.992104

 Multiplicity           Mult            ....    1
 Number of Electrons    NEL             ....  102
 Basis Dimension        Dim             ....  149

ORBITAL ENERGIES
----------------

  NO   OCC          E(Eh)            E(eV)
   0   2.0000     -19.156310      -521.2697
   1   2.0000     -19.145900      -520.9864
   2   2.0000     -19.130404      -520.5647
   3   2.0000     -19.130281      -520.5614
   4   2.0000     -10.274269      -279.5771
   5   2.0000     -10.252484      -278.9843
   6   2.0000     -10.237234      -278.5693
   7   2.0000     -10.236205      -278.5413
   8   2.0000     -10.234880      -278.5052
   9   2.0000     -10.215830      -277.9869
  10   2.0000     -10.201938      -277.6088
  11   2.0000     -10.187743      -277.2226
  12   2.0000     -10.179927      -277.0099
  13   2.0000      -1.043631       -28.3986
  14   2.0000      -1.038365       -28.2554
  15   2.0000      -1.023102       -27.8400
  16   2.0000      -0.984301       -26.7842
  17   2.0000      -0.789141       -21.4736
  18   2.0000      -0.779921       -21.2227
  19   2.0000      -0.773233       -21.0407
  20   2.0000      -0.732163       -19.9232
  21   2.0000      -0.685322       -18.6486
  22   2.0000      -0.618760       -16.8373
  23   2.0000      -0.605897       -16.4873
  24   2.0000      -0.592059       -16.1107
  25   2.0000      -0.569707       -15.5025
  26   2.0000      -0.529210       -14.4005
  27   2.0000      -0.509796       -13.8723
  28   2.0000      -0.496227       -13.5030
  29   2.0000      -0.494587       -13.4584
  30   2.0000      -0.465238       -12.6598
  31   2.0000      -0.456729       -12.4282
  32   2.0000      -0.441025       -12.0009
  33   2.0000      -0.437033       -11.8923
  34   2.0000      -0.433572       -11.7981
  35   2.0000      -0.425999       -11.5920
  36   2.0000      -0.408671       -11.1205
  37   2.0000      -0.404652       -11.0111
  38   2.0000      -0.382431       -10.4065
  39   2.0000      -0.376900       -10.2560
  40   2.0000      -0.358133        -9.7453
  41   2.0000      -0.351298        -9.5593
  42   2.0000      -0.348599        -9.4859
  43   2.0000      -0.334197        -9.0940
  44   2.0000      -0.321857        -8.7582
  45   2.0000      -0.302653        -8.2356
  46   2.0000      -0.282772        -7.6946
  47   2.0000      -0.278214        -7.5706
  48   2.0000      -0.263998        -7.1838
  49   2.0000      -0.250534        -6.8174
  50   2.0000      -0.234563        -6.3828
  51   0.0000       0.046877         1.2756
  52   0.0000       0.072747         1.9795
  53   0.0000       0.079644         2.1672
  54   0.0000       0.092025         2.5041
  55   0.0000       0.096449         2.6245

MULLIKEN ATOMIC CHARGES
-----------------------
   0 C :    0.327152
   1 C :   -0.307182
   2 C :   -0.326509
   3 C :   -0.002379
   4 O :   -0.496460
   5 H :    0.150409
   6 H :    0.152928
   7 H :    0.143330
   8 H :    0.136557
   9 H :    0.195251
  10 H :    0.157873
  11 H :    0.138420
  12 C :    0.004940
  13 H :    0.123882
  14 H :    0.147140
  15 O :   -0.532930
  16 C :    0.067566
  17 C :    0.082972
  18 C :   -0.323955
  19 C :   -0.013110
  20 O :   -0.517210
  21 H :    0.155332
  22 H :    0.166496
  23 O :   -0.598102
  24 H :    0.160010
  25 H :    0.139043
  26 H :    0.155413
  27 H :    0.153596
  28 H :    0.359527
Sum of atomic charges:    0.0000000

LOEWDIN ATOMIC CHARGES
----------------------
   0 C :    0.187820
   1 C :   -0.234320
   2 C :   -0.228968
   3 C :   -0.026620
   4 O :   -0.307988
   5 H :    0.101221
   6 H :    0.121325
   7 H :    0.111473
   8 H :    0.112182
   9 H :    0.129059
  10 H :    0.110541
  11 H :    0.099950
  12 C :   -0.042665
  13 H :    0.092387
  14 H :    0.111569
  15 O :   -0.333345
  16 C :   -0.001044
  17 C :    0.036905
  18 C :   -0.241242
  19 C :   -0.028805
  20 O :   -0.322255
  21 H :    0.113243
  22 H :    0.118442
  23 O :   -0.405551
  24 H :    0.123813
  25 H :    0.106433
  26 H :    0.108662
  27 H :    0.107832
  28 H :    0.279945

  Mayer bond orders larger than 0.100000
B(  0-C ,  1-C ) :   0.9283 B(  0-C ,  4-O ) :   0.9306 B(  0-C ,  5-H ) :   0.9307
B(  0-C , 15-O ) :   0.8553 B(  1-C ,  2-C ) :   0.9522 B(  1-C ,  6-H ) :   0.9328
B(  1-C ,  7-H ) :   0.9287 B(  2-C ,  3-C ) :   0.9499 B(  2-C ,  8-H ) :   0.9461
B(  2-C ,  9-H ) :   0.9148 B(  3-C ,  4-O ) :   0.8380 B(  3-C , 10-H ) :   0.9336
B(  3-C , 11-H ) :   0.9402 B( 12-C , 13-H ) :   0.9011 B( 12-C , 14-H ) :   0.9370
B( 12-C , 15-O ) :   0.8735 B( 12-C , 16-C ) :   0.8790 B( 16-C , 17-C ) :   0.8629
B( 16-C , 20-O ) :   0.8494 B( 16-C , 21-H ) :   0.9190 B( 17-C , 18-C ) :   0.9238
B( 17-C , 22-H ) :   0.9338 B( 17-C , 23-O ) :   0.9017 B( 18-C , 19-C ) :   0.9383
B( 18-C , 24-H ) :   0.9415 B( 18-C , 25-H ) :   0.9392 B( 19-C , 20-O ) :   0.8387
B( 19-C , 26-H ) :   0.9304 B( 19-C , 27-H ) :   0.9371 B( 23-O , 28-H ) :   0.7962

FINAL SINGLE POINT ENERGY      -652.840369943708

DIPOLE MOMENT
-------------
                                X             Y             Z
Electronic contribution:     -0.82069      -3.16695      -0.52759
Nuclear contribution   :      0.41506       4.26200       0.17723
                        -----------------------------------------
Total Dipole Moment    :     -0.40564       1.09505      -0.35035
                        -----------------------------------------
Magnitude (a.u.)       :      1.21919
Magnitude (Debye)      :      3.09893

Rotational constants in cm-1:     0.048989     0.015568     0.014339
Rotational constants in MHz :  1468.650482   466.719004   429.882084

                             ****ORCA TERMINATED NORMALLY****
TOTAL RUN TIME: 0 days 1 hours 45 minutes 48 seconds 369 msec
