                         Program Version 4.2.0 -  RELEASE  -
|  1> # Test redundant internal optimization
|  2> #
|  3> ! RKS B3LYP  Opt TightSCF SmallPrint
|  4>
|  5> %basis
|  6>         Basis "6-31G"
|  7> end
|  8>
|  9> %geom
| 10> Constraints
| 11> { D 4  0  15  12  240.0   C } # D for Dihedral angle
| 12> { D 0  15  12  16  225.0   C } # D for Dihedral angle
| 13> { D 0  4  3  2   C } # D for Dihedral angle
| 14> { D 4  3  2  1   C } # D for Dihedral angle
| 15> { D 3  2  1  0   C } # D for Dihedral angle
| 16> { D 2  1  0  4   C } # D for Dihedral angle
| 17> { D 1  0  4  3   C } # D for Dihedral angle
| 18> { D 16  20  19  18   C } # D for Dihedral angle
| 19> { D 20  19  18  17   C } # D for Dihedral angle
| 20> { D 19  18  17  16   C } # D for Dihedral angle
| 21> { D 18  17  16  20   C } # D for Dihedral angle
| 22> { D 17  16  20  19   C } # D for Dihedral angle
| 23> { D 15  12  16  20   C } # D for Dihedral angle
| 24> end
| 25> end
| 26>
| 27>
| 28> #%pal
| 29> #nprocs 8
| 30> #end
| 31>
| 32> * xyz 0 1
| 33> C  -21.048   26.222   46.251
| 34> C  -20.361   27.558   45.944
| 35> C  -20.329   28.222   47.341
| 36> C  -20.110   27.022   48.296
| 37> O  -20.473   25.807   47.535
| 38> H  -20.833   25.428   45.533
| 39> H  -19.344   27.382   45.576
| 40> H  -20.898   28.157   45.201
| 41> H  -19.543   28.978   47.434
| 42> H  -21.289   28.710   47.548
| 43> H  -20.733   27.082   49.195
| 44> H  -19.064   26.913   48.597
| 45> C  -23.430   25.483   45.442
| 46> H  -22.779   25.054   44.670
| 47> H  -23.875   24.657   46.012
| 48> O  -22.586   26.394   46.375
| 49> C  -24.585   26.248   44.739
| 50> C  -24.042   27.317   43.783
| 51> C  -23.649   26.467   42.552
| 52> C  -24.735   25.362   42.527
| 53> O  -25.347   25.343   43.872
| 54> H  -25.276   26.626   45.494
| 55> H  -24.836   28.028   43.525
| 56> O  -22.846   28.113   44.373
| 57> H  -23.624   27.049   41.625
| 58> H  -22.655   26.029   42.699
| 59> H  -24.321   24.373   42.306
| 60> H  -25.534   25.578   41.812
| 61> H  -22.039   27.421   44.639
| 62> *
| 63>
| 64>                          ****END OF INPUT****
 Total Charge           Charge          ....    0
 Multiplicity           Mult            ....    1
 Number of Electrons    NEL             ....  102
FINAL SINGLE POINT ENERGY      -652.814693083732
FINAL SINGLE POINT ENERGY      -652.842043289401
FINAL SINGLE POINT ENERGY      -652.850506993437
FINAL SINGLE POINT ENERGY      -652.853579903098
FINAL SINGLE POINT ENERGY      -652.855276145607
FINAL SINGLE POINT ENERGY      -652.856919305808
FINAL SINGLE POINT ENERGY      -652.858410756874
FINAL SINGLE POINT ENERGY      -652.859572084055
FINAL SINGLE POINT ENERGY      -652.860606455563
FINAL SINGLE POINT ENERGY      -652.861056325556
FINAL SINGLE POINT ENERGY      -652.861190491681
FINAL SINGLE POINT ENERGY      -652.861220856143
FINAL SINGLE POINT ENERGY      -652.861224568224
                    ***********************HURRAY********************

CARTESIAN COORDINATES (ANGSTROEM)
---------------------------------
  C    -21.048106   26.154073   46.238298
  C    -20.317270   27.453809   45.904743
  C    -20.330973   28.189709   47.267639
  C    -20.186320   27.033808   48.280757
  O    -20.551748   25.800383   47.538705
  H    -20.837410   25.316513   45.568589
  H    -19.287937   27.201316   45.622001
  H    -20.768217   28.009333   45.082426
  H    -19.524653   28.924091   47.353999
  H    -21.283189   28.712283   47.406598
  H    -20.849363   27.129080   49.144056
  H    -19.157303   26.897820   48.625857
  C    -23.339859   25.478715   45.468376
  H    -22.705978   24.963687   44.734428
  H    -23.813081   24.721817   46.101261
  O    -22.505134   26.348767   46.313090
  C    -24.441223   26.267048   44.745054
  C    -23.994967   27.345631   43.746844
  C    -23.636284   26.492317   42.501770
  C    -24.671488   25.348656   42.547802
  O    -25.210665   25.323731   43.936737
  H    -25.132095   26.675522   45.489745
  H    -24.857786   27.983160   43.516879
  O    -22.911738   28.181511   44.210712
  H    -23.687474   27.070926   41.575418
  H    -22.610132   26.125349   42.611954
  H    -24.241873   24.369441   42.315843
  H    -25.524320   25.524698   41.885636
  H    -22.757417   27.979807   45.160784

 Multiplicity           Mult            ....    1
 Number of Electrons    NEL             ....  102
 Basis Dimension        Dim             ....  149

ORBITAL ENERGIES
----------------

  NO   OCC          E(Eh)            E(eV)
   0   2.0000     -19.157565      -521.3038
   1   2.0000     -19.145760      -520.9826
   2   2.0000     -19.143693      -520.9264
   3   2.0000     -19.133251      -520.6422
   4   2.0000     -10.287611      -279.9401
   5   2.0000     -10.239785      -278.6387
   6   2.0000     -10.238630      -278.6073
   7   2.0000     -10.237931      -278.5883
   8   2.0000     -10.232618      -278.4437
   9   2.0000     -10.227787      -278.3122
  10   2.0000     -10.189528      -277.2711
  11   2.0000     -10.187938      -277.2279
  12   2.0000     -10.187153      -277.2065
  13   2.0000      -1.057748       -28.7828
  14   2.0000      -1.032856       -28.1054
  15   2.0000      -1.011735       -27.5307
  16   2.0000      -0.998670       -27.1752
  17   2.0000      -0.791112       -21.5272
  18   2.0000      -0.779190       -21.2028
  19   2.0000      -0.770441       -20.9648
  20   2.0000      -0.734847       -19.9962
  21   2.0000      -0.681765       -18.5518
  22   2.0000      -0.603661       -16.4265
  23   2.0000      -0.603216       -16.4143
  24   2.0000      -0.594193       -16.1688
  25   2.0000      -0.588496       -16.0138
  26   2.0000      -0.526363       -14.3231
  27   2.0000      -0.520716       -14.1694
  28   2.0000      -0.500944       -13.6314
  29   2.0000      -0.491928       -13.3860
  30   2.0000      -0.471049       -12.8179
  31   2.0000      -0.460119       -12.5205
  32   2.0000      -0.446779       -12.1575
  33   2.0000      -0.437330       -11.9003
  34   2.0000      -0.429873       -11.6974
  35   2.0000      -0.424390       -11.5483
  36   2.0000      -0.403697       -10.9852
  37   2.0000      -0.390856       -10.6357
  38   2.0000      -0.384184       -10.4542
  39   2.0000      -0.375024       -10.2049
  40   2.0000      -0.359043        -9.7701
  41   2.0000      -0.357042        -9.7156
  42   2.0000      -0.352146        -9.5824
  43   2.0000      -0.343176        -9.3383
  44   2.0000      -0.324431        -8.8282
  45   2.0000      -0.315581        -8.5874
  46   2.0000      -0.298034        -8.1099
  47   2.0000      -0.276384        -7.5208
  48   2.0000      -0.265163        -7.2154
  49   2.0000      -0.260490        -7.0883
  50   2.0000      -0.243694        -6.6312
  51   0.0000       0.050820         1.3829
  52   0.0000       0.070726         1.9246
  53   0.0000       0.088744         2.4148
  54   0.0000       0.096282         2.6200
  55   0.0000       0.109092         2.9685

MULLIKEN ATOMIC CHARGES
-----------------------
   0 C :    0.295639
   1 C :   -0.304086
   2 C :   -0.302098
   3 C :   -0.001650
   4 O :   -0.499299
   5 H :    0.146623
   6 H :    0.150589
   7 H :    0.178996
   8 H :    0.147074
   9 H :    0.157868
  10 H :    0.153925
  11 H :    0.143940
  12 C :   -0.001925
  13 H :    0.130440
  14 H :    0.170541
  15 O :   -0.544262
  16 C :    0.033240
  17 C :    0.121457
  18 C :   -0.301713
  19 C :   -0.017636
  20 O :   -0.516801
  21 H :    0.163323
  22 H :    0.147081
  23 O :   -0.639425
  24 H :    0.153552
  25 H :    0.147363
  26 H :    0.143214
  27 H :    0.152400
  28 H :    0.391629
Sum of atomic charges:    0.0000000

LOEWDIN ATOMIC CHARGES
----------------------
   0 C :    0.179202
   1 C :   -0.234607
   2 C :   -0.217038
   3 C :   -0.026356
   4 O :   -0.310767
   5 H :    0.101152
   6 H :    0.118164
   7 H :    0.131495
   8 H :    0.116933
   9 H :    0.115296
  10 H :    0.109072
  11 H :    0.103663
  12 C :   -0.039513
  13 H :    0.097035
  14 H :    0.117942
  15 O :   -0.347384
  16 C :    0.011622
  17 C :    0.040073
  18 C :   -0.231388
  19 C :   -0.030616
  20 O :   -0.319660
  21 H :    0.115144
  22 H :    0.102982
  23 O :   -0.430617
  24 H :    0.121987
  25 H :    0.112373
  26 H :    0.102932
  27 H :    0.107424
  28 H :    0.283455

  Mayer bond orders larger than 0.100000
B(  0-C ,  1-C ) :   0.9413 B(  0-C ,  4-O ) :   0.9411 B(  0-C ,  5-H ) :   0.9185
B(  0-C , 15-O ) :   0.8118 B(  1-C ,  2-C ) :   0.9515 B(  1-C ,  6-H ) :   0.9359
B(  1-C ,  7-H ) :   0.9093 B(  2-C ,  3-C ) :   0.9518 B(  2-C ,  8-H ) :   0.9452
B(  2-C ,  9-H ) :   0.9452 B(  3-C ,  4-O ) :   0.8341 B(  3-C , 10-H ) :   0.9348
B(  3-C , 11-H ) :   0.9397 B( 12-C , 13-H ) :   0.9209 B( 12-C , 14-H ) :   0.9266
B( 12-C , 15-O ) :   0.8079 B( 12-C , 16-C ) :   0.9026 B( 16-C , 17-C ) :   0.9164
B( 16-C , 20-O ) :   0.8551 B( 16-C , 21-H ) :   0.9279 B( 17-C , 18-C ) :   0.9164
B( 17-C , 22-H ) :   0.9230 B( 17-C , 23-O ) :   0.9048 B( 18-C , 19-C ) :   0.9385
B( 18-C , 24-H ) :   0.9445 B( 18-C , 25-H ) :   0.9417 B( 19-C , 20-O ) :   0.8346
B( 19-C , 26-H ) :   0.9342 B( 19-C , 27-H ) :   0.9376 B( 23-O , 28-H ) :   0.7242

FINAL SINGLE POINT ENERGY      -652.861224451158

DIPOLE MOMENT
-------------
                                X             Y             Z
Electronic contribution:     -2.96998      -2.07657       1.86119
Nuclear contribution   :      3.51975       2.31334      -2.28486
                        -----------------------------------------
Total Dipole Moment    :      0.54977       0.23677      -0.42367
                        -----------------------------------------
Magnitude (a.u.)       :      0.73336
Magnitude (Debye)      :      1.86404

Rotational constants in cm-1:     0.061128     0.013902     0.012619
Rotational constants in MHz :  1832.575145   416.759279   378.301560

                             ****ORCA TERMINATED NORMALLY****
TOTAL RUN TIME: 0 days 0 hours 47 minutes 33 seconds 372 msec
