                         Program Version 4.2.0 -  RELEASE  -
|  1> # Test redundant internal optimization
|  2> #
|  3> ! RKS B3LYP  Opt TightSCF SmallPrint
|  4>
|  5> %basis
|  6>         Basis "6-31G"
|  7> end
|  8>
|  9> %geom
| 10> Constraints
| 11> { D 4  0  15  12  165.0   C } # D for Dihedral angle
| 12> { D 0  15  12  16  180.0   C } # D for Dihedral angle
| 13> { D 0  4  3  2   C } # D for Dihedral angle
| 14> { D 4  3  2  1   C } # D for Dihedral angle
| 15> { D 3  2  1  0   C } # D for Dihedral angle
| 16> { D 2  1  0  4   C } # D for Dihedral angle
| 17> { D 1  0  4  3   C } # D for Dihedral angle
| 18> { D 16  20  19  18   C } # D for Dihedral angle
| 19> { D 20  19  18  17   C } # D for Dihedral angle
| 20> { D 19  18  17  16   C } # D for Dihedral angle
| 21> { D 18  17  16  20   C } # D for Dihedral angle
| 22> { D 17  16  20  19   C } # D for Dihedral angle
| 23> { D 15  12  16  20   C } # D for Dihedral angle
| 24> end
| 25> end
| 26>
| 27>
| 28> #%pal
| 29> #nprocs 8
| 30> #end
| 31>
| 32> * xyz 0 1
| 33> C  -21.048   26.222   46.251
| 34> C  -20.361   27.558   45.944
| 35> C  -20.329   28.222   47.341
| 36> C  -20.110   27.022   48.296
| 37> O  -20.473   25.807   47.535
| 38> H  -20.833   25.428   45.533
| 39> H  -19.344   27.382   45.576
| 40> H  -20.898   28.157   45.201
| 41> H  -19.543   28.978   47.434
| 42> H  -21.289   28.710   47.548
| 43> H  -20.733   27.082   49.195
| 44> H  -19.064   26.913   48.597
| 45> C  -23.260   27.170   45.210
| 46> H  -22.827   28.177   45.148
| 47> H  -23.081   26.660   44.255
| 48> O  -22.586   26.394   46.375
| 49> C  -24.797   27.309   45.391
| 50> C  -25.443   27.976   44.172
| 51> C  -25.512   26.799   43.170
| 52> C  -25.792   25.578   44.082
| 53> O  -25.427   25.986   45.455
| 54> H  -25.002   27.808   46.341
| 55> H  -26.449   28.329   44.424
| 56> O  -24.624   29.180   43.630
| 57> H  -26.284   26.936   42.407
| 58> H  -24.550   26.685   42.657
| 59> H  -25.201   24.700   43.800
| 60> H  -26.851   25.303   44.097
| 61> H  -23.612   28.851   43.370
| 62> *
| 63>
| 64>                          ****END OF INPUT****
 Total Charge           Charge          ....    0
 Multiplicity           Mult            ....    1
 Number of Electrons    NEL             ....  102
FINAL SINGLE POINT ENERGY      -652.820570018341
FINAL SINGLE POINT ENERGY      -652.844576659356
FINAL SINGLE POINT ENERGY      -652.849651202654
FINAL SINGLE POINT ENERGY      -652.850517158663
FINAL SINGLE POINT ENERGY      -652.850719688473
FINAL SINGLE POINT ENERGY      -652.850777740139
FINAL SINGLE POINT ENERGY      -652.850786355025
FINAL SINGLE POINT ENERGY      -652.850788144515
                    ***********************HURRAY********************

CARTESIAN COORDINATES (ANGSTROEM)
---------------------------------
  C    -21.047298   26.253505   46.190731
  C    -20.243738   27.533258   45.961908
  C    -20.348683   28.233085   47.342091
  C    -20.333998   27.043476   48.324231
  O    -20.678109   25.847816   47.514806
  H    -20.807358   25.427653   45.513190
  H    -19.204995   27.254482   45.749328
  H    -20.596785   28.154618   45.135446
  H    -19.526772   28.933193   47.518881
  H    -21.292012   28.783713   47.413407
  H    -21.065288   27.140578   49.130380
  H    -19.344021   26.857395   48.751194
  C    -23.091154   27.177942   45.105379
  H    -22.711928   28.207238   45.042646
  H    -22.874050   26.669352   44.150561
  O    -22.494011   26.454210   46.206320
  C    -24.594985   27.246048   45.364389
  C    -25.382855   27.960662   44.254413
  C    -25.590077   26.814182   43.219295
  C    -25.766004   25.572167   44.120393
  O    -25.225536   25.934677   45.455384
  H    -24.741002   27.712497   46.342764
  H    -26.343494   28.294625   44.651618
  O    -24.765283   29.160945   43.725502
  H    -26.448427   26.995351   42.566831
  H    -24.695561   26.725556   42.587431
  H    -25.232086   24.693792   43.745792
  H    -26.818458   25.310275   44.262495
  H    -24.059035   28.929713   43.088195

 Multiplicity           Mult            ....    1
 Number of Electrons    NEL             ....  102
 Basis Dimension        Dim             ....  149

ORBITAL ENERGIES
----------------

  NO   OCC          E(Eh)            E(eV)
   0   2.0000     -19.152504      -521.1661
   1   2.0000     -19.137307      -520.7526
   2   2.0000     -19.136563      -520.7324
   3   2.0000     -19.135357      -520.6995
   4   2.0000     -10.277852      -279.6746
   5   2.0000     -10.246373      -278.8180
   6   2.0000     -10.232033      -278.4278
   7   2.0000     -10.230433      -278.3842
   8   2.0000     -10.229317      -278.3539
   9   2.0000     -10.223441      -278.1940
  10   2.0000     -10.197623      -277.4914
  11   2.0000     -10.189764      -277.2776
  12   2.0000     -10.188298      -277.2377
  13   2.0000      -1.051387       -28.6097
  14   2.0000      -1.034938       -28.1621
  15   2.0000      -1.015809       -27.6416
  16   2.0000      -0.990788       -26.9607
  17   2.0000      -0.787106       -21.4182
  18   2.0000      -0.783737       -21.3266
  19   2.0000      -0.769069       -20.9274
  20   2.0000      -0.730960       -19.8904
  21   2.0000      -0.682824       -18.5806
  22   2.0000      -0.612899       -16.6778
  23   2.0000      -0.602224       -16.3874
  24   2.0000      -0.589498       -16.0411
  25   2.0000      -0.574148       -15.6234
  26   2.0000      -0.527665       -14.3585
  27   2.0000      -0.511225       -13.9111
  28   2.0000      -0.501730       -13.6528
  29   2.0000      -0.494755       -13.4630
  30   2.0000      -0.467653       -12.7255
  31   2.0000      -0.460343       -12.5266
  32   2.0000      -0.448877       -12.2146
  33   2.0000      -0.435095       -11.8395
  34   2.0000      -0.430763       -11.7217
  35   2.0000      -0.416799       -11.3417
  36   2.0000      -0.408689       -11.1210
  37   2.0000      -0.396766       -10.7965
  38   2.0000      -0.379066       -10.3149
  39   2.0000      -0.374626       -10.1941
  40   2.0000      -0.360711        -9.8154
  41   2.0000      -0.356150        -9.6913
  42   2.0000      -0.351718        -9.5707
  43   2.0000      -0.331427        -9.0186
  44   2.0000      -0.316878        -8.6227
  45   2.0000      -0.310072        -8.4375
  46   2.0000      -0.296591        -8.0706
  47   2.0000      -0.272713        -7.4209
  48   2.0000      -0.258321        -7.0293
  49   2.0000      -0.248715        -6.7679
  50   2.0000      -0.240592        -6.5468
  51   0.0000       0.046957         1.2778
  52   0.0000       0.073451         1.9987
  53   0.0000       0.085746         2.3333
  54   0.0000       0.090406         2.4601
  55   0.0000       0.106272         2.8918

MULLIKEN ATOMIC CHARGES
-----------------------
   0 C :    0.317048
   1 C :   -0.295671
   2 C :   -0.298211
   3 C :    0.000169
   4 O :   -0.497431
   5 H :    0.142435
   6 H :    0.150866
   7 H :    0.139479
   8 H :    0.143413
   9 H :    0.157860
  10 H :    0.156536
  11 H :    0.141838
  12 C :   -0.014897
  13 H :    0.131250
  14 H :    0.108236
  15 O :   -0.503367
  16 C :    0.101090
  17 C :    0.079521
  18 C :   -0.324834
  19 C :   -0.009100
  20 O :   -0.498728
  21 H :    0.164205
  22 H :    0.169197
  23 O :   -0.599818
  24 H :    0.158659
  25 H :    0.130666
  26 H :    0.145783
  27 H :    0.149508
  28 H :    0.354297
Sum of atomic charges:   -0.0000000

LOEWDIN ATOMIC CHARGES
----------------------
   0 C :    0.183287
   1 C :   -0.235892
   2 C :   -0.216901
   3 C :   -0.025253
   4 O :   -0.300695
   5 H :    0.097630
   6 H :    0.118042
   7 H :    0.111439
   8 H :    0.114906
   9 H :    0.115652
  10 H :    0.110617
  11 H :    0.102520
  12 C :   -0.053836
  13 H :    0.093962
  14 H :    0.081518
  15 O :   -0.320344
  16 C :    0.024591
  17 C :    0.034061
  18 C :   -0.241817
  19 C :   -0.029531
  20 O :   -0.308045
  21 H :    0.120610
  22 H :    0.120149
  23 O :   -0.408670
  24 H :    0.122676
  25 H :    0.102226
  26 H :    0.103945
  27 H :    0.106279
  28 H :    0.276875

  Mayer bond orders larger than 0.100000
B(  0-C ,  1-C ) :   0.9264 B(  0-C ,  4-O ) :   0.9389 B(  0-C ,  5-H ) :   0.9218
B(  0-C , 15-O ) :   0.8377 B(  1-C ,  2-C ) :   0.9507 B(  1-C ,  6-H ) :   0.9341
B(  1-C ,  7-H ) :   0.9290 B(  2-C ,  3-C ) :   0.9548 B(  2-C ,  8-H ) :   0.9452
B(  2-C ,  9-H ) :   0.9448 B(  3-C ,  4-O ) :   0.8365 B(  3-C , 10-H ) :   0.9340
B(  3-C , 11-H ) :   0.9397 B( 12-C , 13-H ) :   0.8918 B( 12-C , 14-H ) :   0.9145
B( 12-C , 15-O ) :   0.8545 B( 12-C , 16-C ) :   0.9038 B( 16-C , 17-C ) :   0.8722
B( 16-C , 20-O ) :   0.8772 B( 16-C , 21-H ) :   0.9291 B( 17-C , 18-C ) :   0.9275
B( 17-C , 22-H ) :   0.9331 B( 17-C , 23-O ) :   0.8921 B( 18-C , 19-C ) :   0.9385
B( 18-C , 24-H ) :   0.9413 B( 18-C , 25-H ) :   0.9402 B( 19-C , 20-O ) :   0.8542
B( 19-C , 26-H ) :   0.9311 B( 19-C , 27-H ) :   0.9375 B( 23-O , 28-H ) :   0.7996

FINAL SINGLE POINT ENERGY      -652.850788422717

DIPOLE MOMENT
-------------
                                X             Y             Z
Electronic contribution:     -2.26348      -2.70979       2.14486
Nuclear contribution   :      2.81396       3.46743      -3.52516
                        -----------------------------------------
Total Dipole Moment    :      0.55048       0.75764      -1.38030
                        -----------------------------------------
Magnitude (a.u.)       :      1.66801
Magnitude (Debye)      :      4.23975

Rotational constants in cm-1:     0.055323     0.012750     0.011415
Rotational constants in MHz :  1658.539387   382.239046   342.219573

                             ****ORCA TERMINATED NORMALLY****
TOTAL RUN TIME: 0 days 0 hours 25 minutes 3 seconds 801 msec
