                         Program Version 4.2.0 -  RELEASE  -
|  1> # Test redundant internal optimization
|  2> #
|  3> ! RKS B3LYP  Opt TightSCF SmallPrint
|  4>
|  5> %basis
|  6>         Basis "6-31G"
|  7> end
|  8>
|  9> %geom
| 10> Constraints
| 11> { D 4  0  15  12  195.0   C } # D for Dihedral angle
| 12> { D 0  15  12  16  75.0   C } # D for Dihedral angle
| 13> { D 0  4  3  2   C } # D for Dihedral angle
| 14> { D 4  3  2  1   C } # D for Dihedral angle
| 15> { D 3  2  1  0   C } # D for Dihedral angle
| 16> { D 2  1  0  4   C } # D for Dihedral angle
| 17> { D 1  0  4  3   C } # D for Dihedral angle
| 18> { D 16  20  19  18   C } # D for Dihedral angle
| 19> { D 20  19  18  17   C } # D for Dihedral angle
| 20> { D 19  18  17  16   C } # D for Dihedral angle
| 21> { D 18  17  16  20   C } # D for Dihedral angle
| 22> { D 17  16  20  19   C } # D for Dihedral angle
| 23> { D 15  12  16  20   C } # D for Dihedral angle
| 24> end
| 25> end
| 26>
| 27>
| 28> #%pal
| 29> #nprocs 8
| 30> #end
| 31>
| 32> * xyz 0 1
| 33> C  -21.048   26.222   46.251
| 34> C  -20.361   27.558   45.944
| 35> C  -20.329   28.222   47.341
| 36> C  -20.110   27.022   48.296
| 37> O  -20.473   25.807   47.535
| 38> H  -20.833   25.428   45.533
| 39> H  -19.344   27.382   45.576
| 40> H  -20.898   28.157   45.201
| 41> H  -19.543   28.978   47.434
| 42> H  -21.289   28.710   47.548
| 43> H  -20.733   27.082   49.195
| 44> H  -19.064   26.913   48.597
| 45> C  -23.353   26.472   45.026
| 46> H  -24.362   26.864   45.206
| 47> H  -22.840   27.150   44.332
| 48> O  -22.586   26.394   46.375
| 49> C  -23.482   25.090   44.328
| 50> C  -24.140   25.222   42.950
| 51> C  -22.958   25.721   42.085
| 52> C  -21.739   24.988   42.699
| 53> O  -22.156   24.533   44.043
| 54> H  -23.984   24.394   45.004
| 55> H  -24.487   24.242   42.603
| 56> O  -25.347   26.200   42.941
| 57> H  -23.087   25.497   41.021
| 58> H  -22.848   26.807   42.188
| 59> H  -20.863   25.639   42.797
| 60> H  -21.457   24.097   42.130
| 61> H  -25.024   27.189   43.285
| 62> *
| 63>
| 64>                          ****END OF INPUT****
 Total Charge           Charge          ....    0
 Multiplicity           Mult            ....    1
 Number of Electrons    NEL             ....  102
FINAL SINGLE POINT ENERGY      -652.827786417696
FINAL SINGLE POINT ENERGY      -652.850829272756
FINAL SINGLE POINT ENERGY      -652.855683938889
FINAL SINGLE POINT ENERGY      -652.856431187456
FINAL SINGLE POINT ENERGY      -652.856550613844
FINAL SINGLE POINT ENERGY      -652.856575678180
FINAL SINGLE POINT ENERGY      -652.856578120241
                    ***********************HURRAY********************

CARTESIAN COORDINATES (ANGSTROEM)
---------------------------------
  C    -20.972504   26.243014   46.208636
  C    -20.289505   27.592034   45.992695
  C    -20.389971   28.232786   47.398853
  C    -20.232554   27.019320   48.338753
  O    -20.512560   25.824431   47.500611
  H    -20.739490   25.453926   45.496433
  H    -19.242941   27.426905   45.709581
  H    -20.762687   28.199009   45.214550
  H    -19.625468   28.996825   47.569350
  H    -21.375219   28.691153   47.524238
  H    -20.932610   27.029973   49.177838
  H    -19.212485   26.903773   48.717608
  C    -23.190910   26.506694   45.076901
  H    -24.176475   26.868410   45.384859
  H    -22.741844   27.260697   44.406580
  O    -22.428460   26.410853   46.305745
  C    -23.369144   25.171460   44.347888
  C    -24.157594   25.272534   43.028763
  C    -23.041437   25.685989   42.021772
  C    -21.803779   24.928343   42.551324
  O    -22.103686   24.547396   43.957980
  H    -23.831238   24.469297   45.047971
  H    -24.560292   24.291227   42.770202
  O    -25.311874   26.145054   43.059370
  H    -23.294273   25.419443   40.992366
  H    -22.893534   26.773520   42.064015
  H    -20.891267   25.532888   42.531201
  H    -21.620688   23.999205   42.004656
  H    -25.033511   27.083842   43.063264

 Multiplicity           Mult            ....    1
 Number of Electrons    NEL             ....  102
 Basis Dimension        Dim             ....  149

ORBITAL ENERGIES
----------------

  NO   OCC          E(Eh)            E(eV)
   0   2.0000     -19.154735      -521.2268
   1   2.0000     -19.148707      -521.0628
   2   2.0000     -19.133368      -520.6454
   3   2.0000     -19.131353      -520.5906
   4   2.0000     -10.264326      -279.3065
   5   2.0000     -10.250586      -278.9326
   6   2.0000     -10.239036      -278.6183
   7   2.0000     -10.233693      -278.4729
   8   2.0000     -10.233165      -278.4586
   9   2.0000     -10.217646      -278.0363
  10   2.0000     -10.202178      -277.6154
  11   2.0000     -10.181746      -277.0594
  12   2.0000     -10.180962      -277.0381
  13   2.0000      -1.045829       -28.4585
  14   2.0000      -1.037849       -28.2413
  15   2.0000      -1.022819       -27.8323
  16   2.0000      -0.985436       -26.8151
  17   2.0000      -0.789314       -21.4783
  18   2.0000      -0.780518       -21.2390
  19   2.0000      -0.768484       -20.9115
  20   2.0000      -0.727942       -19.8083
  21   2.0000      -0.682668       -18.5763
  22   2.0000      -0.618546       -16.8315
  23   2.0000      -0.598542       -16.2872
  24   2.0000      -0.590449       -16.0669
  25   2.0000      -0.568798       -15.4778
  26   2.0000      -0.534125       -14.5343
  27   2.0000      -0.509535       -13.8651
  28   2.0000      -0.499503       -13.5922
  29   2.0000      -0.485613       -13.2142
  30   2.0000      -0.470393       -12.8000
  31   2.0000      -0.456608       -12.4249
  32   2.0000      -0.444712       -12.1012
  33   2.0000      -0.439775       -11.9669
  34   2.0000      -0.430600       -11.7172
  35   2.0000      -0.421862       -11.4794
  36   2.0000      -0.404781       -11.0147
  37   2.0000      -0.395899       -10.7730
  38   2.0000      -0.386329       -10.5125
  39   2.0000      -0.370212       -10.0740
  40   2.0000      -0.360376        -9.8063
  41   2.0000      -0.350179        -9.5288
  42   2.0000      -0.348200        -9.4750
  43   2.0000      -0.334550        -9.1036
  44   2.0000      -0.322710        -8.7814
  45   2.0000      -0.304116        -8.2754
  46   2.0000      -0.299815        -8.1584
  47   2.0000      -0.277132        -7.5411
  48   2.0000      -0.268678        -7.3111
  49   2.0000      -0.250858        -6.8262
  50   2.0000      -0.231045        -6.2870
  51   0.0000       0.045103         1.2273
  52   0.0000       0.065510         1.7826
  53   0.0000       0.084541         2.3005
  54   0.0000       0.098252         2.6736
  55   0.0000       0.099247         2.7006

MULLIKEN ATOMIC CHARGES
-----------------------
   0 C :    0.277652
   1 C :   -0.273194
   2 C :   -0.296420
   3 C :    0.000202
   4 O :   -0.501488
   5 H :    0.189135
   6 H :    0.143349
   7 H :    0.132823
   8 H :    0.137721
   9 H :    0.157328
  10 H :    0.152056
  11 H :    0.138280
  12 C :   -0.034892
  13 H :    0.159817
  14 H :    0.102811
  15 O :   -0.509283
  16 C :    0.090247
  17 C :    0.088526
  18 C :   -0.323727
  19 C :   -0.014645
  20 O :   -0.513586
  21 H :    0.173449
  22 H :    0.169794
  23 O :   -0.597201
  24 H :    0.160019
  25 H :    0.136399
  26 H :    0.141224
  27 H :    0.157054
  28 H :    0.356551
Sum of atomic charges:    0.0000000

LOEWDIN ATOMIC CHARGES
----------------------
   0 C :    0.172487
   1 C :   -0.231107
   2 C :   -0.217319
   3 C :   -0.026184
   4 O :   -0.301939
   5 H :    0.119500
   6 H :    0.112777
   7 H :    0.108170
   8 H :    0.111913
   9 H :    0.116717
  10 H :    0.108237
  11 H :    0.100594
  12 C :   -0.053275
  13 H :    0.120090
  14 H :    0.077268
  15 O :   -0.329633
  16 C :    0.008910
  17 C :    0.036925
  18 C :   -0.241859
  19 C :   -0.031456
  20 O :   -0.318603
  21 H :    0.123362
  22 H :    0.120818
  23 O :   -0.404603
  24 H :    0.124184
  25 H :    0.104769
  26 H :    0.101152
  27 H :    0.109687
  28 H :    0.278414

  Mayer bond orders larger than 0.100000
B(  0-C ,  1-C ) :   0.9301 B(  0-C ,  4-O ) :   0.9289 B(  0-C ,  5-H ) :   0.8958
B(  0-C , 15-O ) :   0.8118 B(  1-C ,  2-C ) :   0.9513 B(  1-C ,  6-H ) :   0.9354
B(  1-C ,  7-H ) :   0.9360 B(  2-C ,  3-C ) :   0.9570 B(  2-C ,  8-H ) :   0.9455
B(  2-C ,  9-H ) :   0.9447 B(  3-C ,  4-O ) :   0.8405 B(  3-C , 10-H ) :   0.9346
B(  3-C , 11-H ) :   0.9400 B( 12-C , 13-H ) :   0.9224 B( 12-C , 14-H ) :   0.9153
B( 12-C , 15-O ) :   0.8837 B( 12-C , 16-C ) :   0.8882 B( 16-C , 17-C ) :   0.8668
B( 16-C , 20-O ) :   0.8508 B( 16-C , 21-H ) :   0.9274 B( 17-C , 18-C ) :   0.9214
B( 17-C , 22-H ) :   0.9327 B( 17-C , 23-O ) :   0.9018 B( 18-C , 19-C ) :   0.9402
B( 18-C , 24-H ) :   0.9417 B( 18-C , 25-H ) :   0.9400 B( 19-C , 20-O ) :   0.8412
B( 19-C , 26-H ) :   0.9318 B( 19-C , 27-H ) :   0.9376 B( 23-O , 28-H ) :   0.7979

FINAL SINGLE POINT ENERGY      -652.856576495428

DIPOLE MOMENT
-------------
                                X             Y             Z
Electronic contribution:     -2.90654      -4.70807       1.70684
Nuclear contribution   :      3.36645       6.01003      -3.00372
                        -----------------------------------------
Total Dipole Moment    :      0.45991       1.30195      -1.29687
                        -----------------------------------------
Magnitude (a.u.)       :      1.89433
Magnitude (Debye)      :      4.81500

Rotational constants in cm-1:     0.057915     0.013203     0.012448
Rotational constants in MHz :  1736.235250   395.830465   373.178590

                             ****ORCA TERMINATED NORMALLY****
TOTAL RUN TIME: 0 days 0 hours 22 minutes 41 seconds 628 msec
