                         Program Version 4.2.0 -  RELEASE  -
|  1> # Test redundant internal optimization
|  2> #
|  3> ! RKS B3LYP  Opt TightSCF SmallPrint
|  4>
|  5> %basis
|  6>         Basis "6-31G"
|  7> end
|  8>
|  9> %geom
| 10> Constraints
| 11> { D 4  0  15  12  240.0   C } # D for Dihedral angle
| 12> { D 0  15  12  16  180.0   C } # D for Dihedral angle
| 13> { D 0  4  3  2   C } # D for Dihedral angle
| 14> { D 4  3  2  1   C } # D for Dihedral angle
| 15> { D 3  2  1  0   C } # D for Dihedral angle
| 16> { D 2  1  0  4   C } # D for Dihedral angle
| 17> { D 1  0  4  3   C } # D for Dihedral angle
| 18> { D 16  20  19  18   C } # D for Dihedral angle
| 19> { D 20  19  18  17   C } # D for Dihedral angle
| 20> { D 19  18  17  16   C } # D for Dihedral angle
| 21> { D 18  17  16  20   C } # D for Dihedral angle
| 22> { D 17  16  20  19   C } # D for Dihedral angle
| 23> { D 15  12  16  20   C } # D for Dihedral angle
| 24> end
| 25> end
| 26>
| 27>
| 28> #%pal
| 29> #nprocs 8
| 30> #end
| 31>
| 32> * xyz 0 1
| 33> C  -21.048   26.222   46.251
| 34> C  -20.361   27.558   45.944
| 35> C  -20.329   28.222   47.341
| 36> C  -20.110   27.022   48.296
| 37> O  -20.473   25.807   47.535
| 38> H  -20.833   25.428   45.533
| 39> H  -19.344   27.382   45.576
| 40> H  -20.898   28.157   45.201
| 41> H  -19.543   28.978   47.434
| 42> H  -21.289   28.710   47.548
| 43> H  -20.733   27.082   49.195
| 44> H  -19.064   26.913   48.597
| 45> C  -23.430   25.483   45.442
| 46> H  -23.166   25.691   44.398
| 47> H  -23.219   24.425   45.645
| 48> O  -22.586   26.394   46.375
| 49> C  -24.959   25.701   45.612
| 50> C  -25.760   24.707   44.764
| 51> C  -25.690   23.427   45.630
| 52> C  -25.730   23.979   47.077
| 53> O  -25.368   25.410   46.991
| 54> H  -25.194   26.750   45.423
| 55> O  -27.229   25.192   44.620
| 56> H  -25.344   24.564   43.761
| 57> H  -26.511   22.731   45.427
| 58> H  -24.749   22.898   45.444
| 59> H  -25.021   23.470   47.740
| 60> H  -26.729   23.925   47.518
| 61> H  -27.666   25.342   45.613
| 62> *
| 63>
| 64>                          ****END OF INPUT****
 Total Charge           Charge          ....    0
 Multiplicity           Mult            ....    1
 Number of Electrons    NEL             ....  102
FINAL SINGLE POINT ENERGY      -652.831366816011
FINAL SINGLE POINT ENERGY      -652.854917572181
FINAL SINGLE POINT ENERGY      -652.858718044699
FINAL SINGLE POINT ENERGY      -652.859428848131
FINAL SINGLE POINT ENERGY      -652.859525982449
FINAL SINGLE POINT ENERGY      -652.859534207430
                    ***********************HURRAY********************

CARTESIAN COORDINATES (ANGSTROEM)
---------------------------------
  C    -21.070260   26.162047   46.176575
  C    -20.496703   27.555629   45.922887
  C    -20.562028   28.189182   47.332933
  C    -20.266572   26.992472   48.263502
  O    -20.507146   25.776047   47.446179
  H    -20.786324   25.392435   45.452561
  H    -19.457851   27.468024   45.582312
  H    -21.068970   28.108945   45.174612
  H    -19.846379   29.006550   47.461595
  H    -21.569465   28.575253   47.513838
  H    -20.919299   26.959222   49.138959
  H    -19.221736   26.951306   48.586118
  C    -23.278422   25.392434   45.402165
  H    -23.056463   25.607975   44.344022
  H    -23.022434   24.341248   45.601327
  O    -22.514766   26.261675   46.272667
  C    -24.759704   25.652891   45.658892
  C    -25.697325   24.761877   44.832039
  C    -25.730932   23.463047   45.680494
  C    -25.653698   23.994540   47.133640
  O    -25.142278   25.383879   47.045916
  H    -24.961669   26.714156   45.486145
  O    -27.015233   25.365557   44.719245
  H    -25.367307   24.599367   43.804924
  H    -26.642406   22.894373   45.479523
  H    -24.869360   22.829514   45.440808
  H    -24.979718   23.407583   47.764560
  H    -26.634331   24.040831   47.617926
  H    -27.277220   25.721940   45.594635

 Multiplicity           Mult            ....    1
 Number of Electrons    NEL             ....  102
 Basis Dimension        Dim             ....  149

ORBITAL ENERGIES
----------------

  NO   OCC          E(Eh)            E(eV)
   0   2.0000     -19.139776      -520.8198
   1   2.0000     -19.139741      -520.8188
   2   2.0000     -19.138235      -520.7779
   3   2.0000     -19.134343      -520.6720
   4   2.0000     -10.276834      -279.6469
   5   2.0000     -10.244067      -278.7552
   6   2.0000     -10.235370      -278.5186
   7   2.0000     -10.234945      -278.5070
   8   2.0000     -10.229193      -278.3505
   9   2.0000     -10.219786      -278.0945
  10   2.0000     -10.190410      -277.2952
  11   2.0000     -10.182420      -277.0777
  12   2.0000     -10.181116      -277.0423
  13   2.0000      -1.050106       -28.5748
  14   2.0000      -1.035776       -28.1849
  15   2.0000      -1.006306       -27.3830
  16   2.0000      -0.991466       -26.9792
  17   2.0000      -0.788337       -21.4518
  18   2.0000      -0.780394       -21.2356
  19   2.0000      -0.767200       -20.8766
  20   2.0000      -0.727896       -19.8071
  21   2.0000      -0.673596       -18.3295
  22   2.0000      -0.604961       -16.4618
  23   2.0000      -0.594332       -16.1726
  24   2.0000      -0.590131       -16.0583
  25   2.0000      -0.585654       -15.9364
  26   2.0000      -0.526466       -14.3259
  27   2.0000      -0.511206       -13.9106
  28   2.0000      -0.493017       -13.4157
  29   2.0000      -0.485173       -13.2022
  30   2.0000      -0.476403       -12.9636
  31   2.0000      -0.458580       -12.4786
  32   2.0000      -0.452031       -12.3004
  33   2.0000      -0.434361       -11.8196
  34   2.0000      -0.430672       -11.7192
  35   2.0000      -0.404126       -10.9968
  36   2.0000      -0.399384       -10.8678
  37   2.0000      -0.393944       -10.7198
  38   2.0000      -0.373929       -10.1751
  39   2.0000      -0.372242       -10.1292
  40   2.0000      -0.357703        -9.7336
  41   2.0000      -0.352963        -9.6046
  42   2.0000      -0.347906        -9.4670
  43   2.0000      -0.330827        -9.0022
  44   2.0000      -0.313698        -8.5362
  45   2.0000      -0.308128        -8.3846
  46   2.0000      -0.302297        -8.2259
  47   2.0000      -0.271954        -7.4003
  48   2.0000      -0.261387        -7.1127
  49   2.0000      -0.247501        -6.7348
  50   2.0000      -0.240808        -6.5527
  51   0.0000       0.065988         1.7956
  52   0.0000       0.082347         2.2408
  53   0.0000       0.088425         2.4062
  54   0.0000       0.099458         2.7064
  55   0.0000       0.104012         2.8303

MULLIKEN ATOMIC CHARGES
-----------------------
   0 C :    0.284470
   1 C :   -0.251657
   2 C :   -0.300332
   3 C :    0.000089
   4 O :   -0.502314
   5 H :    0.136071
   6 H :    0.140654
   7 H :    0.144619
   8 H :    0.139064
   9 H :    0.167111
  10 H :    0.155213
  11 H :    0.138348
  12 C :    0.004734
  13 H :    0.123954
  14 H :    0.134163
  15 O :   -0.508783
  16 C :    0.064947
  17 C :    0.074908
  18 C :   -0.294518
  19 C :   -0.035256
  20 O :   -0.505428
  21 H :    0.167895
  22 O :   -0.602338
  23 H :    0.149286
  24 H :    0.163533
  25 H :    0.142968
  26 H :    0.156310
  27 H :    0.145992
  28 H :    0.366297
Sum of atomic charges:   -0.0000000

LOEWDIN ATOMIC CHARGES
----------------------
   0 C :    0.175684
   1 C :   -0.220739
   2 C :   -0.216339
   3 C :   -0.025829
   4 O :   -0.316715
   5 H :    0.097413
   6 H :    0.111159
   7 H :    0.117527
   8 H :    0.112899
   9 H :    0.121701
  10 H :    0.109820
  11 H :    0.100560
  12 C :   -0.040235
  13 H :    0.091348
  14 H :    0.095662
  15 O :   -0.324234
  16 C :    0.018765
  17 C :    0.035138
  18 C :   -0.241353
  19 C :   -0.039537
  20 O :   -0.317681
  21 H :    0.120579
  22 O :   -0.414397
  23 H :    0.114248
  24 H :    0.126905
  25 H :    0.112318
  26 H :    0.108871
  27 H :    0.102294
  28 H :    0.284169

  Mayer bond orders larger than 0.100000
B(  0-C ,  1-C ) :   0.9425 B(  0-C ,  4-O ) :   0.9309 B(  0-C ,  5-H ) :   0.9195
B(  0-C , 15-O ) :   0.8430 B(  1-C ,  2-C ) :   0.9575 B(  1-C ,  6-H ) :   0.9372
B(  1-C ,  7-H ) :   0.9387 B(  2-C ,  3-C ) :   0.9548 B(  2-C ,  8-H ) :   0.9453
B(  2-C ,  9-H ) :   0.9426 B(  3-C ,  4-O ) :   0.8371 B(  3-C , 10-H ) :   0.9342
B(  3-C , 11-H ) :   0.9399 B( 12-C , 13-H ) :   0.9101 B( 12-C , 14-H ) :   0.9134
B( 12-C , 15-O ) :   0.8443 B( 12-C , 16-C ) :   0.9036 B( 16-C , 17-C ) :   0.9002
B( 16-C , 20-O ) :   0.8729 B( 16-C , 21-H ) :   0.9236 B( 17-C , 18-C ) :   0.9127
B( 17-C , 22-O ) :   0.8940 B( 17-C , 23-H ) :   0.9329 B( 18-C , 19-C ) :   0.9404
B( 18-C , 24-H ) :   0.9369 B( 18-C , 25-H ) :   0.9337 B( 19-C , 20-O ) :   0.8513
B( 19-C , 26-H ) :   0.9325 B( 19-C , 27-H ) :   0.9372 B( 22-O , 28-H ) :   0.7932

FINAL SINGLE POINT ENERGY      -652.859535425039

DIPOLE MOMENT
-------------
                                X             Y             Z
Electronic contribution:     -2.62196      -0.51144       0.31070
Nuclear contribution   :      3.08018       0.40179      -0.72247
                        -----------------------------------------
Total Dipole Moment    :      0.45822      -0.10965      -0.41177
                        -----------------------------------------
Magnitude (a.u.)       :      0.62573
Magnitude (Debye)      :      1.59049

Rotational constants in cm-1:     0.064606     0.011395     0.010883
Rotational constants in MHz :  1936.838558   341.624758   326.254550

                             ****ORCA TERMINATED NORMALLY****
TOTAL RUN TIME: 0 days 0 hours 19 minutes 23 seconds 136 msec
