                         Program Version 4.2.0 -  RELEASE  -
|  1> # Test redundant internal optimization
|  2> #
|  3> ! RKS B3LYP  Opt TightSCF SmallPrint
|  4>
|  5> %basis
|  6>         Basis "6-31G"
|  7> end
|  8>
|  9> %geom
| 10> Constraints
| 11> { D 4  0  15  12  255.0   C } # D for Dihedral angle
| 12> { D 0  15  12  16  90.0   C } # D for Dihedral angle
| 13> { D 0  4  3  2   C } # D for Dihedral angle
| 14> { D 4  3  2  1   C } # D for Dihedral angle
| 15> { D 3  2  1  0   C } # D for Dihedral angle
| 16> { D 2  1  0  4   C } # D for Dihedral angle
| 17> { D 1  0  4  3   C } # D for Dihedral angle
| 18> { D 16  20  19  18   C } # D for Dihedral angle
| 19> { D 20  19  18  17   C } # D for Dihedral angle
| 20> { D 19  18  17  16   C } # D for Dihedral angle
| 21> { D 18  17  16  20   C } # D for Dihedral angle
| 22> { D 17  16  20  19   C } # D for Dihedral angle
| 23> { D 15  12  16  20   C } # D for Dihedral angle
| 24> end
| 25> end
| 26>
| 27>
| 28> #%pal
| 29> #nprocs 8
| 30> #end
| 31>
| 32> * xyz 0 1
| 33> C  -21.048   26.222   46.251
| 34> C  -20.361   27.558   45.944
| 35> C  -20.329   28.222   47.341
| 36> C  -20.110   27.022   48.296
| 37> O  -20.473   25.807   47.535
| 38> H  -20.833   25.428   45.533
| 39> H  -19.344   27.382   45.576
| 40> H  -20.898   28.157   45.201
| 41> H  -19.543   28.978   47.434
| 42> H  -21.289   28.710   47.548
| 43> H  -20.733   27.082   49.195
| 44> H  -19.064   26.913   48.597
| 45> C  -23.431   25.260   45.734
| 46> H  -24.384   25.673   45.381
| 47> H  -22.905   24.828   44.872
| 48> O  -22.586   26.394   46.375
| 49> C  -23.738   24.104   46.727
| 50> C  -24.472   22.953   46.031
| 51> C  -23.309   22.230   45.309
| 52> C  -22.127   22.395   46.296
| 53> O  -22.492   23.499   47.209
| 54> H  -24.256   24.510   47.598
| 55> H  -24.933   22.295   46.776
| 56> O  -25.579   23.436   45.054
| 57> H  -23.530   21.180   45.095
| 58> H  -23.090   22.728   44.357
| 59> H  -21.189   22.646   45.788
| 60> H  -21.969   21.506   46.912
| 61> H  -25.141   24.096   44.297
| 62> *
| 63>
| 64>                          ****END OF INPUT****
 Total Charge           Charge          ....    0
 Multiplicity           Mult            ....    1
 Number of Electrons    NEL             ....  102
FINAL SINGLE POINT ENERGY      -652.826620213811
FINAL SINGLE POINT ENERGY      -652.849935773141
FINAL SINGLE POINT ENERGY      -652.854820423355
FINAL SINGLE POINT ENERGY      -652.855577166847
FINAL SINGLE POINT ENERGY      -652.855692361525
FINAL SINGLE POINT ENERGY      -652.855727547612
FINAL SINGLE POINT ENERGY      -652.855732052305
                    ***********************HURRAY********************

CARTESIAN COORDINATES (ANGSTROEM)
---------------------------------
  C    -20.991483   26.215520   46.215262
  C    -20.424543   27.613151   45.966686
  C    -20.444975   28.225234   47.389014
  C    -20.121660   27.011832   48.288120
  O    -20.388881   25.810745   47.459673
  H    -20.728465   25.455417   45.474018
  H    -19.395876   27.526783   45.596310
  H    -21.017671   28.177117   45.243965
  H    -19.724310   29.039837   47.508839
  H    -21.445470   28.610853   47.606575
  H    -20.743755   26.964260   49.185180
  H    -19.066897   26.966321   48.576781
  C    -23.266421   25.314689   45.708391
  H    -24.192585   25.820111   45.417139
  H    -22.776354   24.931712   44.798057
  O    -22.433369   26.340716   46.304201
  C    -23.607160   24.168148   46.662643
  C    -24.459783   23.058645   46.024854
  C    -23.375917   22.186009   45.321151
  C    -22.178466   22.284837   46.291460
  O    -22.427611   23.466478   47.156900
  H    -24.085977   24.597628   47.547155
  H    -24.956857   22.487378   46.811406
  O    -25.537663   23.510929   45.167693
  H    -23.712534   21.158744   45.160367
  H    -23.136435   22.619672   44.341031
  H    -21.220227   22.413600   45.778758
  H    -22.108016   21.415555   46.951774
  H    -25.186639   23.822078   44.308594

 Multiplicity           Mult            ....    1
 Number of Electrons    NEL             ....  102
 Basis Dimension        Dim             ....  149

ORBITAL ENERGIES
----------------

  NO   OCC          E(Eh)            E(eV)
   0   2.0000     -19.150010      -521.0983
   1   2.0000     -19.137519      -520.7584
   2   2.0000     -19.134477      -520.6756
   3   2.0000     -19.126990      -520.4719
   4   2.0000     -10.272093      -279.5179
   5   2.0000     -10.244499      -278.7670
   6   2.0000     -10.231281      -278.4073
   7   2.0000     -10.228300      -278.3262
   8   2.0000     -10.225908      -278.2611
   9   2.0000     -10.214769      -277.9580
  10   2.0000     -10.195233      -277.4264
  11   2.0000     -10.177920      -276.9553
  12   2.0000     -10.177631      -276.9474
  13   2.0000      -1.044426       -28.4203
  14   2.0000      -1.031870       -28.0786
  15   2.0000      -1.013403       -27.5761
  16   2.0000      -0.987634       -26.8749
  17   2.0000      -0.783112       -21.3096
  18   2.0000      -0.778944       -21.1961
  19   2.0000      -0.762787       -20.7565
  20   2.0000      -0.725641       -19.7457
  21   2.0000      -0.677774       -18.4432
  22   2.0000      -0.610805       -16.6208
  23   2.0000      -0.590427       -16.0663
  24   2.0000      -0.589455       -16.0399
  25   2.0000      -0.574057       -15.6209
  26   2.0000      -0.526624       -14.3302
  27   2.0000      -0.509314       -13.8591
  28   2.0000      -0.495618       -13.4865
  29   2.0000      -0.481390       -13.0993
  30   2.0000      -0.462485       -12.5849
  31   2.0000      -0.452103       -12.3024
  32   2.0000      -0.447109       -12.1665
  33   2.0000      -0.428151       -11.6506
  34   2.0000      -0.425851       -11.5880
  35   2.0000      -0.415608       -11.3093
  36   2.0000      -0.405491       -11.0340
  37   2.0000      -0.390087       -10.6148
  38   2.0000      -0.380300       -10.3485
  39   2.0000      -0.363611        -9.8943
  40   2.0000      -0.351521        -9.5654
  41   2.0000      -0.348360        -9.4794
  42   2.0000      -0.341839        -9.3019
  43   2.0000      -0.329663        -8.9706
  44   2.0000      -0.312790        -8.5114
  45   2.0000      -0.311118        -8.4659
  46   2.0000      -0.295776        -8.0485
  47   2.0000      -0.269654        -7.3377
  48   2.0000      -0.263321        -7.1653
  49   2.0000      -0.248585        -6.7643
  50   2.0000      -0.227973        -6.2035
  51   0.0000       0.049739         1.3535
  52   0.0000       0.069171         1.8822
  53   0.0000       0.091895         2.5006
  54   0.0000       0.099343         2.7033
  55   0.0000       0.108866         2.9624

MULLIKEN ATOMIC CHARGES
-----------------------
   0 C :    0.300144
   1 C :   -0.256301
   2 C :   -0.299765
   3 C :   -0.000819
   4 O :   -0.488377
   5 H :    0.132199
   6 H :    0.139715
   7 H :    0.145899
   8 H :    0.137076
   9 H :    0.161727
  10 H :    0.150045
  11 H :    0.136776
  12 C :   -0.024879
  13 H :    0.153390
  14 H :    0.105976
  15 O :   -0.515877
  16 C :    0.103150
  17 C :    0.080669
  18 C :   -0.323575
  19 C :   -0.008962
  20 O :   -0.495115
  21 H :    0.161839
  22 H :    0.169696
  23 O :   -0.600318
  24 H :    0.157555
  25 H :    0.129151
  26 H :    0.142830
  27 H :    0.150958
  28 H :    0.355194
Sum of atomic charges:   -0.0000000

LOEWDIN ATOMIC CHARGES
----------------------
   0 C :    0.178508
   1 C :   -0.220075
   2 C :   -0.216967
   3 C :   -0.027615
   4 O :   -0.307938
   5 H :    0.094309
   6 H :    0.110753
   7 H :    0.118023
   8 H :    0.111460
   9 H :    0.118823
  10 H :    0.106998
  11 H :    0.099695
  12 C :   -0.046107
  13 H :    0.114809
  14 H :    0.081892
  15 O :   -0.323506
  16 C :    0.010671
  17 C :    0.033911
  18 C :   -0.242498
  19 C :   -0.029990
  20 O :   -0.307418
  21 H :    0.119287
  22 H :    0.120413
  23 O :   -0.408503
  24 H :    0.122681
  25 H :    0.101898
  26 H :    0.102140
  27 H :    0.107038
  28 H :    0.277309

  Mayer bond orders larger than 0.100000
B(  0-C ,  1-C ) :   0.9434 B(  0-C ,  4-O ) :   0.9316 B(  0-C ,  5-H ) :   0.9205
B(  0-C , 15-O ) :   0.8376 B(  1-C ,  2-C ) :   0.9590 B(  1-C ,  6-H ) :   0.9393
B(  1-C ,  7-H ) :   0.9383 B(  2-C ,  3-C ) :   0.9526 B(  2-C ,  8-H ) :   0.9457
B(  2-C ,  9-H ) :   0.9442 B(  3-C ,  4-O ) :   0.8449 B(  3-C , 10-H ) :   0.9346
B(  3-C , 11-H ) :   0.9400 B( 12-C , 13-H ) :   0.9220 B( 12-C , 14-H ) :   0.9229
B( 12-C , 15-O ) :   0.8769 B( 12-C , 16-C ) :   0.8862 B( 16-C , 17-C ) :   0.8661
B( 16-C , 20-O ) :   0.8744 B( 16-C , 21-H ) :   0.9302 B( 17-C , 18-C ) :   0.9246
B( 17-C , 22-H ) :   0.9322 B( 17-C , 23-O ) :   0.8959 B( 18-C , 19-C ) :   0.9370
B( 18-C , 24-H ) :   0.9416 B( 18-C , 25-H ) :   0.9402 B( 19-C , 20-O ) :   0.8513
B( 19-C , 26-H ) :   0.9314 B( 19-C , 27-H ) :   0.9376 B( 23-O , 28-H ) :   0.7988

FINAL SINGLE POINT ENERGY      -652.855732901059

DIPOLE MOMENT
-------------
                                X             Y             Z
Electronic contribution:     -2.67168      -1.78648       1.55865
Nuclear contribution   :      3.08194       1.78727      -2.67139
                        -----------------------------------------
Total Dipole Moment    :      0.41026       0.00079      -1.11274
                        -----------------------------------------
Magnitude (a.u.)       :      1.18596
Magnitude (Debye)      :      3.01447

Rotational constants in cm-1:     0.058741     0.013699     0.012348
Rotational constants in MHz :  1761.017150   410.700387   370.195992

                             ****ORCA TERMINATED NORMALLY****
TOTAL RUN TIME: 0 days 0 hours 23 minutes 6 seconds 172 msec
