                         Program Version 4.2.0 -  RELEASE  -
|  1> # Test redundant internal optimization
|  2> #
|  3> ! RKS B3LYP  Opt TightSCF SmallPrint
|  4>
|  5> %basis
|  6>         Basis "6-31G"
|  7> end
|  8>
|  9> %geom
| 10> Constraints
| 11> { D 4  0  15  12  195.0   C } # D for Dihedral angle
| 12> { D 0  15  12  16  150.0   C } # D for Dihedral angle
| 13> { D 0  4  3  2   C } # D for Dihedral angle
| 14> { D 4  3  2  1   C } # D for Dihedral angle
| 15> { D 3  2  1  0   C } # D for Dihedral angle
| 16> { D 2  1  0  4   C } # D for Dihedral angle
| 17> { D 1  0  4  3   C } # D for Dihedral angle
| 18> { D 16  20  19  18   C } # D for Dihedral angle
| 19> { D 20  19  18  17   C } # D for Dihedral angle
| 20> { D 19  18  17  16   C } # D for Dihedral angle
| 21> { D 18  17  16  20   C } # D for Dihedral angle
| 22> { D 17  16  20  19   C } # D for Dihedral angle
| 23> { D 15  12  16  20   C } # D for Dihedral angle
| 24> end
| 25> end
| 26>
| 27>
| 28> #%pal
| 29> #nprocs 8
| 30> #end
| 31>
| 32> * xyz 0 1
| 33> C  -21.048   26.222   46.251
| 34> C  -20.361   27.558   45.944
| 35> C  -20.329   28.222   47.341
| 36> C  -20.110   27.022   48.296
| 37> O  -20.473   25.807   47.535
| 38> H  -20.833   25.428   45.533
| 39> H  -19.344   27.382   45.576
| 40> H  -20.898   28.157   45.201
| 41> H  -19.543   28.978   47.434
| 42> H  -21.289   28.710   47.548
| 43> H  -20.733   27.082   49.195
| 44> H  -19.064   26.913   48.597
| 45> C  -23.353   26.472   45.026
| 46> H  -23.409   27.519   44.702
| 47> H  -22.826   25.901   44.251
| 48> O  -22.586   26.394   46.375
| 49> C  -24.799   25.913   45.124
| 50> C  -24.805   24.476   45.660
| 51> C  -24.627   24.708   47.180
| 52> C  -25.411   26.020   47.430
| 53> O  -25.576   26.670   46.111
| 54> H  -25.297   26.038   44.161
| 55> H  -25.771   24.002   45.452
| 56> O  -23.683   23.592   45.051
| 57> H  -25.003   23.876   47.783
| 58> H  -23.565   24.841   47.418
| 59> H  -24.883   26.703   48.104
| 60> H  -26.414   25.838   47.826
| 61> H  -22.707   24.049   45.247
| 62> *
| 63>
| 64>                          ****END OF INPUT****
 Total Charge           Charge          ....    0
 Multiplicity           Mult            ....    1
 Number of Electrons    NEL             ....  102
FINAL SINGLE POINT ENERGY      -652.831001729048
FINAL SINGLE POINT ENERGY      -652.854781549167
FINAL SINGLE POINT ENERGY      -652.859540089896
FINAL SINGLE POINT ENERGY      -652.861637171216
FINAL SINGLE POINT ENERGY      -652.861937061015
FINAL SINGLE POINT ENERGY      -652.862004066511
FINAL SINGLE POINT ENERGY      -652.862009252555
FINAL SINGLE POINT ENERGY      -652.861996399086
                    ***********************HURRAY********************

CARTESIAN COORDINATES (ANGSTROEM)
---------------------------------
  C    -21.064683   26.262005   46.172130
  C    -20.347605   27.582793   45.902076
  C    -20.369571   28.250216   47.297908
  C    -20.213662   27.052068   48.256638
  O    -20.567415   25.849195   47.452188
  H    -20.852775   25.461011   45.453469
  H    -19.319806   27.377149   45.580369
  H    -20.835194   28.186760   45.131687
  H    -19.572993   28.989836   47.421374
  H    -21.331731   28.746665   47.454340
  H    -20.880131   27.098687   49.120805
  H    -19.184396   26.905963   48.596097
  C    -23.241922   26.527614   45.042461
  H    -23.293153   27.573824   44.716712
  H    -22.738139   25.938349   44.261661
  O    -22.503881   26.441419   46.298123
  C    -24.658191   25.985383   45.210099
  C    -24.755734   24.513971   45.650413
  C    -24.641432   24.634134   47.202142
  C    -25.376836   25.960660   47.491698
  O    -25.443392   26.700798   46.205351
  H    -25.168089   26.141653   44.251115
  H    -25.725870   24.107678   45.354843
  O    -23.771448   23.642248   45.039181
  H    -25.097627   23.781445   47.714037
  H    -23.587627   24.709094   47.481402
  H    -24.850360   26.579428   48.223209
  H    -26.409204   25.807057   47.820720
  H    -22.937134   23.685896   45.549753

 Multiplicity           Mult            ....    1
 Number of Electrons    NEL             ....  102
 Basis Dimension        Dim             ....  149

ORBITAL ENERGIES
----------------

  NO   OCC          E(Eh)            E(eV)
   0   2.0000     -19.149077      -521.0729
   1   2.0000     -19.148685      -521.0622
   2   2.0000     -19.138876      -520.7953
   3   2.0000     -19.130554      -520.5688
   4   2.0000     -10.288094      -279.9533
   5   2.0000     -10.234199      -278.4867
   6   2.0000     -10.231390      -278.4103
   7   2.0000     -10.231211      -278.4054
   8   2.0000     -10.228255      -278.3250
   9   2.0000     -10.217972      -278.0452
  10   2.0000     -10.192237      -277.3449
  11   2.0000     -10.191070      -277.3131
  12   2.0000     -10.175671      -276.8941
  13   2.0000      -1.061554       -28.8864
  14   2.0000      -1.025354       -27.9013
  15   2.0000      -1.008102       -27.4319
  16   2.0000      -0.998638       -27.1743
  17   2.0000      -0.792105       -21.5543
  18   2.0000      -0.771393       -20.9907
  19   2.0000      -0.763032       -20.7632
  20   2.0000      -0.734996       -20.0003
  21   2.0000      -0.677228       -18.4283
  22   2.0000      -0.606436       -16.5020
  23   2.0000      -0.600279       -16.3344
  24   2.0000      -0.597536       -16.2598
  25   2.0000      -0.567233       -15.4352
  26   2.0000      -0.529617       -14.4116
  27   2.0000      -0.503791       -13.7089
  28   2.0000      -0.502353       -13.6697
  29   2.0000      -0.490714       -13.3530
  30   2.0000      -0.473083       -12.8732
  31   2.0000      -0.455694       -12.4001
  32   2.0000      -0.448996       -12.2178
  33   2.0000      -0.426588       -11.6081
  34   2.0000      -0.423612       -11.5271
  35   2.0000      -0.411700       -11.2029
  36   2.0000      -0.406022       -11.0484
  37   2.0000      -0.398217       -10.8360
  38   2.0000      -0.379938       -10.3386
  39   2.0000      -0.366572        -9.9749
  40   2.0000      -0.361627        -9.8404
  41   2.0000      -0.356919        -9.7123
  42   2.0000      -0.350373        -9.5341
  43   2.0000      -0.324523        -8.8307
  44   2.0000      -0.316516        -8.6128
  45   2.0000      -0.310223        -8.4416
  46   2.0000      -0.308236        -8.3875
  47   2.0000      -0.268143        -7.2965
  48   2.0000      -0.261980        -7.1288
  49   2.0000      -0.259321        -7.0565
  50   2.0000      -0.235371        -6.4048
  51   0.0000       0.057187         1.5561
  52   0.0000       0.082125         2.2347
  53   0.0000       0.090984         2.4758
  54   0.0000       0.098858         2.6901
  55   0.0000       0.108785         2.9602

MULLIKEN ATOMIC CHARGES
-----------------------
   0 C :    0.293330
   1 C :   -0.269442
   2 C :   -0.299310
   3 C :   -0.003015
   4 O :   -0.509852
   5 H :    0.135539
   6 H :    0.147120
   7 H :    0.149052
   8 H :    0.145004
   9 H :    0.166055
  10 H :    0.154970
  11 H :    0.144885
  12 C :   -0.018482
  13 H :    0.146401
  14 H :    0.135511
  15 O :   -0.518032
  16 C :    0.093186
  17 C :    0.091667
  18 C :   -0.319313
  19 C :   -0.003622
  20 O :   -0.522619
  21 H :    0.145836
  22 H :    0.156824
  23 O :   -0.614422
  24 H :    0.139906
  25 H :    0.178333
  26 H :    0.148263
  27 H :    0.140292
  28 H :    0.365933
Sum of atomic charges:   -0.0000000

LOEWDIN ATOMIC CHARGES
----------------------
   0 C :    0.174428
   1 C :   -0.228474
   2 C :   -0.216202
   3 C :   -0.024155
   4 O :   -0.309646
   5 H :    0.092214
   6 H :    0.115354
   7 H :    0.117329
   8 H :    0.116060
   9 H :    0.121147
  10 H :    0.109871
  11 H :    0.104105
  12 C :   -0.048964
  13 H :    0.103697
  14 H :    0.101289
  15 O :   -0.335497
  16 C :    0.019788
  17 C :    0.038800
  18 C :   -0.243914
  19 C :   -0.023837
  20 O :   -0.323803
  21 H :    0.112448
  22 H :    0.113459
  23 O :   -0.414927
  24 H :    0.113051
  25 H :    0.127440
  26 H :    0.106251
  27 H :    0.100137
  28 H :    0.282550

  Mayer bond orders larger than 0.100000
B(  0-C ,  1-C ) :   0.9301 B(  0-C ,  4-O ) :   0.9348 B(  0-C ,  5-H ) :   0.9159
B(  0-C , 15-O ) :   0.8318 B(  1-C ,  2-C ) :   0.9527 B(  1-C ,  6-H ) :   0.9339
B(  1-C ,  7-H ) :   0.9351 B(  2-C ,  3-C ) :   0.9563 B(  2-C ,  8-H ) :   0.9447
B(  2-C ,  9-H ) :   0.9432 B(  3-C ,  4-O ) :   0.8296 B(  3-C , 10-H ) :   0.9349
B(  3-C , 11-H ) :   0.9397 B( 12-C , 13-H ) :   0.9202 B( 12-C , 14-H ) :   0.9003
B( 12-C , 15-O ) :   0.8310 B( 12-C , 16-C ) :   0.9157 B( 16-C , 17-C ) :   0.8837
B( 16-C , 20-O ) :   0.8807 B( 16-C , 21-H ) :   0.9280 B( 17-C , 18-C ) :   0.9378
B( 17-C , 22-H ) :   0.9366 B( 17-C , 23-O ) :   0.8939 B( 18-C , 19-C ) :   0.9476
B( 18-C , 24-H ) :   0.9410 B( 18-C , 25-H ) :   0.9204 B( 19-C , 20-O ) :   0.8374
B( 19-C , 26-H ) :   0.9326 B( 19-C , 27-H ) :   0.9377 B( 23-O , 28-H ) :   0.7936

FINAL SINGLE POINT ENERGY      -652.861991914105

DIPOLE MOMENT
-------------
                                X             Y             Z
Electronic contribution:     -2.54596      -2.79295      -1.49859
Nuclear contribution   :      3.45113       3.43229       1.64944
                        -----------------------------------------
Total Dipole Moment    :      0.90517       0.63935       0.15085
                        -----------------------------------------
Magnitude (a.u.)       :      1.11842
Magnitude (Debye)      :      2.84280

Rotational constants in cm-1:     0.046618     0.015645     0.015146
Rotational constants in MHz :  1397.558415   469.032129   454.071222

                             ****ORCA TERMINATED NORMALLY****
TOTAL RUN TIME: 0 days 0 hours 57 minutes 14 seconds 126 msec
