                         Program Version 4.2.0 -  RELEASE  -
|  1> # Test redundant internal optimization
|  2> #
|  3> ! RKS B3LYP  Opt TightSCF SmallPrint
|  4>
|  5> %basis
|  6>         Basis "6-31G"
|  7> end
|  8>
|  9> %geom
| 10> Constraints
| 11> { D 4  0  15  12  210.0   C } # D for Dihedral angle
| 12> { D 0  15  12  16  120.0   C } # D for Dihedral angle
| 13> { D 0  4  3  2   C } # D for Dihedral angle
| 14> { D 4  3  2  1   C } # D for Dihedral angle
| 15> { D 3  2  1  0   C } # D for Dihedral angle
| 16> { D 2  1  0  4   C } # D for Dihedral angle
| 17> { D 1  0  4  3   C } # D for Dihedral angle
| 18> { D 16  20  19  18   C } # D for Dihedral angle
| 19> { D 20  19  18  17   C } # D for Dihedral angle
| 20> { D 19  18  17  16   C } # D for Dihedral angle
| 21> { D 18  17  16  20   C } # D for Dihedral angle
| 22> { D 17  16  20  19   C } # D for Dihedral angle
| 23> { D 15  12  16  20   C } # D for Dihedral angle
| 24> end
| 25> end
| 26>
| 27>
| 28> #%pal
| 29> #nprocs 8
| 30> #end
| 31>
| 32> * xyz 0 1
| 33> C  -21.048   26.222   46.251
| 34> C  -20.361   27.558   45.944
| 35> C  -20.329   28.222   47.341
| 36> C  -20.110   27.022   48.296
| 37> O  -20.473   25.807   47.535
| 38> H  -20.833   25.428   45.533
| 39> H  -19.344   27.382   45.576
| 40> H  -20.898   28.157   45.201
| 41> H  -19.543   28.978   47.434
| 42> H  -21.289   28.710   47.548
| 43> H  -20.733   27.082   49.195
| 44> H  -19.064   26.913   48.597
| 45> C  -23.389   26.110   45.076
| 46> H  -23.933   27.017   44.782
| 47> H  -22.711   25.836   44.258
| 48> O  -22.586   26.394   46.375
| 49> C  -24.417   24.957   45.245
| 50> C  -23.739   23.676   45.745
| 51> C  -23.589   23.970   47.257
| 52> C  -24.864   24.787   47.585
| 53> O  -25.388   25.285   46.294
| 54> H  -24.978   24.839   44.316
| 55> O  -24.671   22.456   45.514
| 56> H  -22.781   23.476   45.254
| 57> H  -23.509   23.061   47.861
| 58> H  -22.689   24.571   47.436
| 59> H  -24.659   25.638   48.243
| 60> H  -25.649   24.172   48.035
| 61> H  -25.638   22.634   45.998
| 62> *
| 63>
| 64>                          ****END OF INPUT****
 Total Charge           Charge          ....    0
 Multiplicity           Mult            ....    1
 Number of Electrons    NEL             ....  102
FINAL SINGLE POINT ENERGY      -652.834067856874
FINAL SINGLE POINT ENERGY      -652.856789676428
FINAL SINGLE POINT ENERGY      -652.860575598805
FINAL SINGLE POINT ENERGY      -652.862368947749
FINAL SINGLE POINT ENERGY      -652.862503528927
FINAL SINGLE POINT ENERGY      -652.862527301327
                    ***********************HURRAY********************

CARTESIAN COORDINATES (ANGSTROEM)
---------------------------------
  C    -21.052086   26.227921   46.203248
  C    -20.353903   27.552258   45.899858
  C    -20.391582   28.256418   47.277196
  C    -20.221089   27.086494   48.269096
  O    -20.552753   25.856717   47.497940
  H    -20.825180   25.408443   45.513009
  H    -19.320993   27.357205   45.587198
  H    -20.854908   28.121887   45.112568
  H    -19.608014   29.012243   47.384700
  H    -21.363083   28.739454   47.415983
  H    -20.891685   27.147516   49.129202
  H    -19.191036   26.966586   48.616582
  C    -23.284859   26.126929   45.118616
  H    -23.820532   27.044910   44.855067
  H    -22.635975   25.849334   44.274343
  O    -22.491901   26.410840   46.309174
  C    -24.312583   25.018282   45.354533
  C    -23.775765   23.641818   45.775928
  C    -23.613872   23.819209   47.310758
  C    -24.802654   24.740650   47.679525
  O    -25.253773   25.372362   46.415423
  H    -24.900784   24.921349   44.432921
  O    -24.731069   22.597238   45.434080
  H    -22.851663   23.353578   45.272471
  H    -23.660294   22.848293   47.812299
  H    -22.663305   24.300870   47.543929
  H    -24.513602   25.529349   48.378413
  H    -25.659446   24.193143   48.087211
  H    -25.616611   22.858705   45.763728

 Multiplicity           Mult            ....    1
 Number of Electrons    NEL             ....  102
 Basis Dimension        Dim             ....  149

ORBITAL ENERGIES
----------------

  NO   OCC          E(Eh)            E(eV)
   0   2.0000     -19.149146      -521.0748
   1   2.0000     -19.146203      -520.9947
   2   2.0000     -19.133405      -520.6464
   3   2.0000     -19.131620      -520.5978
   4   2.0000     -10.287484      -279.9367
   5   2.0000     -10.235639      -278.5259
   6   2.0000     -10.233384      -278.4645
   7   2.0000     -10.230776      -278.3936
   8   2.0000     -10.230207      -278.3781
   9   2.0000     -10.216944      -278.0172
  10   2.0000     -10.191347      -277.3207
  11   2.0000     -10.190445      -277.2961
  12   2.0000     -10.168532      -276.6998
  13   2.0000      -1.059938       -28.8424
  14   2.0000      -1.028839       -27.9961
  15   2.0000      -1.002812       -27.2879
  16   2.0000      -0.994331       -27.0571
  17   2.0000      -0.792031       -21.5523
  18   2.0000      -0.773336       -21.0435
  19   2.0000      -0.760076       -20.6827
  20   2.0000      -0.735374       -20.0105
  21   2.0000      -0.674448       -18.3527
  22   2.0000      -0.605374       -16.4731
  23   2.0000      -0.599722       -16.3193
  24   2.0000      -0.591708       -16.1012
  25   2.0000      -0.575822       -15.6689
  26   2.0000      -0.526790       -14.3347
  27   2.0000      -0.503241       -13.6939
  28   2.0000      -0.500944       -13.6314
  29   2.0000      -0.488673       -13.2975
  30   2.0000      -0.473604       -12.8874
  31   2.0000      -0.453657       -12.3446
  32   2.0000      -0.447910       -12.1882
  33   2.0000      -0.435416       -11.8483
  34   2.0000      -0.429426       -11.6853
  35   2.0000      -0.409291       -11.1374
  36   2.0000      -0.402454       -10.9513
  37   2.0000      -0.382171       -10.3994
  38   2.0000      -0.377848       -10.2818
  39   2.0000      -0.363554        -9.8928
  40   2.0000      -0.361754        -9.8438
  41   2.0000      -0.353470        -9.6184
  42   2.0000      -0.352656        -9.5963
  43   2.0000      -0.326874        -8.8947
  44   2.0000      -0.318094        -8.6558
  45   2.0000      -0.313495        -8.5306
  46   2.0000      -0.299135        -8.1399
  47   2.0000      -0.270581        -7.3629
  48   2.0000      -0.261862        -7.1256
  49   2.0000      -0.259103        -7.0505
  50   2.0000      -0.233802        -6.3621
  51   0.0000       0.067121         1.8264
  52   0.0000       0.080078         2.1790
  53   0.0000       0.088757         2.4152
  54   0.0000       0.105455         2.8696
  55   0.0000       0.112055         3.0492

MULLIKEN ATOMIC CHARGES
-----------------------
   0 C :    0.291264
   1 C :   -0.258469
   2 C :   -0.300060
   3 C :   -0.003121
   4 O :   -0.507679
   5 H :    0.140231
   6 H :    0.144642
   7 H :    0.147340
   8 H :    0.144289
   9 H :    0.166285
  10 H :    0.155296
  11 H :    0.144664
  12 C :   -0.011226
  13 H :    0.157914
  14 H :    0.120595
  15 O :   -0.514386
  16 C :    0.079565
  17 C :    0.069410
  18 C :   -0.296153
  19 C :   -0.022124
  20 O :   -0.527286
  21 H :    0.149972
  22 O :   -0.603988
  23 H :    0.142899
  24 H :    0.145815
  25 H :    0.193850
  26 H :    0.156103
  27 H :    0.131994
  28 H :    0.362363
Sum of atomic charges:    0.0000000

LOEWDIN ATOMIC CHARGES
----------------------
   0 C :    0.175867
   1 C :   -0.225158
   2 C :   -0.216235
   3 C :   -0.024715
   4 O :   -0.309924
   5 H :    0.095615
   6 H :    0.113650
   7 H :    0.117426
   8 H :    0.115685
   9 H :    0.121454
  10 H :    0.109997
  11 H :    0.103927
  12 C :   -0.038715
  13 H :    0.113765
  14 H :    0.095502
  15 O :   -0.333739
  16 C :    0.009692
  17 C :    0.036670
  18 C :   -0.244166
  19 C :   -0.033089
  20 O :   -0.331234
  21 H :    0.113249
  22 O :   -0.417774
  23 H :    0.110945
  24 H :    0.117481
  25 H :    0.137607
  26 H :    0.110257
  27 H :    0.094259
  28 H :    0.281700

  Mayer bond orders larger than 0.100000
B(  0-C ,  1-C ) :   0.9363 B(  0-C ,  4-O ) :   0.9167 B(  0-C ,  5-H ) :   0.9166
B(  0-C , 15-O ) :   0.8285 B(  1-C ,  2-C ) :   0.9536 B(  1-C ,  6-H ) :   0.9338
B(  1-C ,  7-H ) :   0.9384 B(  2-C ,  3-C ) :   0.9554 B(  2-C ,  8-H ) :   0.9447
B(  2-C ,  9-H ) :   0.9427 B(  3-C ,  4-O ) :   0.8294 B(  3-C , 10-H ) :   0.9348
B(  3-C , 11-H ) :   0.9396 B( 12-C , 13-H ) :   0.9269 B( 12-C , 14-H ) :   0.9122
B( 12-C , 15-O ) :   0.8522 B( 12-C , 16-C ) :   0.8973 B( 16-C , 17-C ) :   0.9075
B( 16-C , 20-O ) :   0.8752 B( 16-C , 21-H ) :   0.9185 B( 17-C , 18-C ) :   0.9234
B( 17-C , 22-O ) :   0.8890 B( 17-C , 23-H ) :   0.9367 B( 18-C , 19-C ) :   0.9440
B( 18-C , 24-H ) :   0.9376 B( 18-C , 25-H ) :   0.9058 B( 19-C , 20-O ) :   0.8362
B( 19-C , 26-H ) :   0.9339 B( 19-C , 27-H ) :   0.9380 B( 22-O , 28-H ) :   0.7962

FINAL SINGLE POINT ENERGY      -652.862528015464

DIPOLE MOMENT
-------------
                                X             Y             Z
Electronic contribution:     -3.67450      -3.21624      -1.19991
Nuclear contribution   :      4.56233       4.22312       1.07242
                        -----------------------------------------
Total Dipole Moment    :      0.88783       1.00688      -0.12749
                        -----------------------------------------
Magnitude (a.u.)       :      1.34844
Magnitude (Debye)      :      3.42747

Rotational constants in cm-1:     0.055551     0.014432     0.013891
Rotational constants in MHz :  1665.387190   432.664753   416.432905

                             ****ORCA TERMINATED NORMALLY****
TOTAL RUN TIME: 0 days 0 hours 51 minutes 16 seconds 638 msec
