                         Program Version 4.2.0 -  RELEASE  -
|  1> # Test redundant internal optimization
|  2> #
|  3> ! RKS B3LYP  Opt TightSCF SmallPrint
|  4>
|  5> %basis
|  6>         Basis "6-31G"
|  7> end
|  8>
|  9> %geom
| 10> Constraints
| 11> { D 4  0  15  12  270.0   C } # D for Dihedral angle
| 12> { D 0  15  12  16  285.0   C } # D for Dihedral angle
| 13> { D 0  4  3  2   C } # D for Dihedral angle
| 14> { D 4  3  2  1   C } # D for Dihedral angle
| 15> { D 3  2  1  0   C } # D for Dihedral angle
| 16> { D 2  1  0  4   C } # D for Dihedral angle
| 17> { D 1  0  4  3   C } # D for Dihedral angle
| 18> { D 16  20  19  18   C } # D for Dihedral angle
| 19> { D 20  19  18  17   C } # D for Dihedral angle
| 20> { D 19  18  17  16   C } # D for Dihedral angle
| 21> { D 18  17  16  20   C } # D for Dihedral angle
| 22> { D 17  16  20  19   C } # D for Dihedral angle
| 23> { D 15  12  16  20   C } # D for Dihedral angle
| 24> end
| 25> end
| 26>
| 27>
| 28> #%pal
| 29> #nprocs 8
| 30> #end
| 31>
| 32> * xyz 0 1
| 33> C  -21.048   26.222   46.251
| 34> C  -20.361   27.558   45.944
| 35> C  -20.329   28.222   47.341
| 36> C  -20.110   27.022   48.296
| 37> O  -20.473   25.807   47.535
| 38> H  -20.833   25.428   45.533
| 39> H  -19.344   27.382   45.576
| 40> H  -20.898   28.157   45.201
| 41> H  -19.543   28.978   47.434
| 42> H  -21.289   28.710   47.548
| 43> H  -20.733   27.082   49.195
| 44> H  -19.064   26.913   48.597
| 45> C  -23.420   25.119   46.072
| 46> H  -22.967   24.260   46.584
| 47> H  -24.447   25.235   46.442
| 48> O  -22.586   26.394   46.375
| 49> C  -23.497   24.798   44.554
| 50> C  -24.420   23.605   44.283
| 51> C  -25.817   24.262   44.373
| 52> C  -25.580   25.675   43.782
| 53> O  -24.120   25.909   43.827
| 54> H  -22.485   24.685   44.160
| 55> H  -24.241   23.211   43.276
| 56> O  -24.233   22.446   45.301
| 57> H  -26.585   23.705   43.826
| 58> H  -26.135   24.331   45.420
| 59> H  -26.086   26.460   44.354
| 60> H  -25.886   25.746   42.734
| 61> H  -24.408   22.816   46.317
| 62> *
| 63>
| 64>                          ****END OF INPUT****
 Total Charge           Charge          ....    0
 Multiplicity           Mult            ....    1
 Number of Electrons    NEL             ....  102
FINAL SINGLE POINT ENERGY      -652.829306605885
FINAL SINGLE POINT ENERGY      -652.853416830601
FINAL SINGLE POINT ENERGY      -652.858270021176
FINAL SINGLE POINT ENERGY      -652.859193649836
FINAL SINGLE POINT ENERGY      -652.859364606447
FINAL SINGLE POINT ENERGY      -652.859385108851
FINAL SINGLE POINT ENERGY      -652.859388712679
                    ***********************HURRAY********************

CARTESIAN COORDINATES (ANGSTROEM)
---------------------------------
  C    -21.057253   26.165804   46.215324
  C    -20.451328   27.537995   45.919080
  C    -20.433758   28.185497   47.322653
  C    -20.135089   26.990408   48.255595
  O    -20.448127   25.770982   47.469499
  H    -20.821566   25.376451   45.497707
  H    -19.433390   27.409598   45.533162
  H    -21.044218   28.094686   45.191050
  H    -19.685708   28.979412   47.411636
  H    -21.418100   28.609079   47.542158
  H    -20.745650   26.992542   49.162217
  H    -19.078570   26.921232   48.532367
  C    -23.318623   25.180405   46.117911
  H    -22.919504   24.316234   46.667867
  H    -24.288119   25.453027   46.545122
  O    -22.483023   26.347962   46.355794
  C    -23.456342   24.826810   44.634733
  C    -24.389002   23.630674   44.374340
  C    -25.793981   24.305457   44.409377
  C    -25.519269   25.691367   43.783943
  O    -24.052498   25.912664   43.860866
  H    -22.466230   24.659968   44.200566
  H    -24.187922   23.228786   43.378647
  O    -24.224826   22.498221   45.259973
  H    -26.541777   23.729304   43.858827
  H    -26.133222   24.393681   45.450070
  H    -26.029473   26.504967   44.308472
  H    -25.792413   25.728578   42.725333
  H    -24.589020   22.696210   46.146709

 Multiplicity           Mult            ....    1
 Number of Electrons    NEL             ....  102
 Basis Dimension        Dim             ....  149

ORBITAL ENERGIES
----------------

  NO   OCC          E(Eh)            E(eV)
   0   2.0000     -19.151491      -521.1386
   1   2.0000     -19.139266      -520.8059
   2   2.0000     -19.138726      -520.7912
   3   2.0000     -19.132405      -520.6192
   4   2.0000     -10.272719      -279.5349
   5   2.0000     -10.247795      -278.8567
   6   2.0000     -10.233038      -278.4551
   7   2.0000     -10.232190      -278.4320
   8   2.0000     -10.229363      -278.3551
   9   2.0000     -10.218966      -278.0722
  10   2.0000     -10.197567      -277.4899
  11   2.0000     -10.178722      -276.9771
  12   2.0000     -10.177709      -276.9495
  13   2.0000      -1.048455       -28.5299
  14   2.0000      -1.034935       -28.1620
  15   2.0000      -1.017081       -27.6762
  16   2.0000      -0.988363       -26.8947
  17   2.0000      -0.785760       -21.3816
  18   2.0000      -0.780695       -21.2438
  19   2.0000      -0.764652       -20.8072
  20   2.0000      -0.729159       -19.8414
  21   2.0000      -0.678933       -18.4747
  22   2.0000      -0.613377       -16.6908
  23   2.0000      -0.601066       -16.3558
  24   2.0000      -0.591143       -16.0858
  25   2.0000      -0.566217       -15.4075
  26   2.0000      -0.533184       -14.5087
  27   2.0000      -0.511501       -13.9186
  28   2.0000      -0.495355       -13.4793
  29   2.0000      -0.486751       -13.2452
  30   2.0000      -0.466365       -12.6904
  31   2.0000      -0.450758       -12.2658
  32   2.0000      -0.442629       -12.0445
  33   2.0000      -0.433383       -11.7930
  34   2.0000      -0.428948       -11.6723
  35   2.0000      -0.422353       -11.4928
  36   2.0000      -0.406234       -11.0542
  37   2.0000      -0.395531       -10.7630
  38   2.0000      -0.379550       -10.3281
  39   2.0000      -0.366044        -9.9606
  40   2.0000      -0.355747        -9.6804
  41   2.0000      -0.349812        -9.5189
  42   2.0000      -0.342079        -9.3084
  43   2.0000      -0.333667        -9.0795
  44   2.0000      -0.320189        -8.7128
  45   2.0000      -0.314444        -8.5565
  46   2.0000      -0.296529        -8.0690
  47   2.0000      -0.273814        -7.4509
  48   2.0000      -0.269290        -7.3277
  49   2.0000      -0.247075        -6.7233
  50   2.0000      -0.235652        -6.4124
  51   0.0000       0.051411         1.3990
  52   0.0000       0.078304         2.1308
  53   0.0000       0.086802         2.3620
  54   0.0000       0.093420         2.5421
  55   0.0000       0.103757         2.8234

MULLIKEN ATOMIC CHARGES
-----------------------
   0 C :    0.278185
   1 C :   -0.255880
   2 C :   -0.299977
   3 C :   -0.000416
   4 O :   -0.512577
   5 H :    0.142191
   6 H :    0.141399
   7 H :    0.164301
   8 H :    0.138599
   9 H :    0.163551
  10 H :    0.144958
  11 H :    0.139363
  12 C :   -0.027030
  13 H :    0.145120
  14 H :    0.143328
  15 O :   -0.504578
  16 C :    0.081174
  17 C :    0.088479
  18 C :   -0.329102
  19 C :   -0.007997
  20 O :   -0.507853
  21 H :    0.155732
  22 H :    0.166979
  23 O :   -0.598842
  24 H :    0.160178
  25 H :    0.135827
  26 H :    0.147466
  27 H :    0.149643
  28 H :    0.357781
Sum of atomic charges:   -0.0000000

LOEWDIN ATOMIC CHARGES
----------------------
   0 C :    0.171134
   1 C :   -0.214974
   2 C :   -0.216430
   3 C :   -0.027353
   4 O :   -0.329835
   5 H :    0.097049
   6 H :    0.112088
   7 H :    0.127520
   8 H :    0.112197
   9 H :    0.119704
  10 H :    0.104372
  11 H :    0.100968
  12 C :   -0.052432
  13 H :    0.104611
  14 H :    0.108844
  15 O :   -0.314324
  16 C :    0.007582
  17 C :    0.035765
  18 C :   -0.242598
  19 C :   -0.029000
  20 O :   -0.318248
  21 H :    0.111696
  22 H :    0.119069
  23 O :   -0.406004
  24 H :    0.123800
  25 H :    0.105049
  26 H :    0.104679
  27 H :    0.106234
  28 H :    0.278837

  Mayer bond orders larger than 0.100000
B(  0-C ,  1-C ) :   0.9485 B(  0-C ,  4-O ) :   0.9068 B(  0-C ,  5-H ) :   0.9150
B(  0-C , 15-O ) :   0.8593 B(  1-C ,  2-C ) :   0.9572 B(  1-C ,  6-H ) :   0.9405
B(  1-C ,  7-H ) :   0.9347 B(  2-C ,  3-C ) :   0.9548 B(  2-C ,  8-H ) :   0.9455
B(  2-C ,  9-H ) :   0.9441 B(  3-C ,  4-O ) :   0.8404 B(  3-C , 10-H ) :   0.9359
B(  3-C , 11-H ) :   0.9404 B( 12-C , 13-H ) :   0.9034 B( 12-C , 14-H ) :   0.9405
B( 12-C , 15-O ) :   0.8648 B( 12-C , 16-C ) :   0.8858 B( 16-C , 17-C ) :   0.8705
B( 16-C , 20-O ) :   0.8672 B( 16-C , 21-H ) :   0.9266 B( 17-C , 18-C ) :   0.9224
B( 17-C , 22-H ) :   0.9331 B( 17-C , 23-O ) :   0.9000 B( 18-C , 19-C ) :   0.9397
B( 18-C , 24-H ) :   0.9416 B( 18-C , 25-H ) :   0.9409 B( 19-C , 20-O ) :   0.8471
B( 19-C , 26-H ) :   0.9313 B( 19-C , 27-H ) :   0.9379 B( 23-O , 28-H ) :   0.7968

FINAL SINGLE POINT ENERGY      -652.859388985290

DIPOLE MOMENT
-------------
                                X             Y             Z
Electronic contribution:      0.23271      -3.01198      -0.80960
Nuclear contribution   :     -0.93133       3.33040       0.88801
                        -----------------------------------------
Total Dipole Moment    :     -0.69862       0.31841       0.07841
                        -----------------------------------------
Magnitude (a.u.)       :      0.77175
Magnitude (Debye)      :      1.96164

Rotational constants in cm-1:     0.058855     0.012530     0.011201
Rotational constants in MHz :  1764.413861   375.624999   335.791071

                             ****ORCA TERMINATED NORMALLY****
TOTAL RUN TIME: 0 days 2 hours 40 minutes 26 seconds 852 msec
