                         Program Version 4.2.0 -  RELEASE  -
|  1> # Test redundant internal optimization
|  2> #
|  3> ! RKS B3LYP  Opt TightSCF SmallPrint
|  4>
|  5> %basis
|  6>         Basis "6-31G"
|  7> end
|  8>
|  9> %geom
| 10> Constraints
| 11> { D 4  0  15  12  240.0   C } # D for Dihedral angle
| 12> { D 0  15  12  16  195.0   C } # D for Dihedral angle
| 13> { D 0  4  3  2   C } # D for Dihedral angle
| 14> { D 4  3  2  1   C } # D for Dihedral angle
| 15> { D 3  2  1  0   C } # D for Dihedral angle
| 16> { D 2  1  0  4   C } # D for Dihedral angle
| 17> { D 1  0  4  3   C } # D for Dihedral angle
| 18> { D 16  20  19  18   C } # D for Dihedral angle
| 19> { D 20  19  18  17   C } # D for Dihedral angle
| 20> { D 19  18  17  16   C } # D for Dihedral angle
| 21> { D 18  17  16  20   C } # D for Dihedral angle
| 22> { D 17  16  20  19   C } # D for Dihedral angle
| 23> { D 15  12  16  20   C } # D for Dihedral angle
| 24> end
| 25> end
| 26>
| 27>
| 28> #%pal
| 29> #nprocs 8
| 30> #end
| 31>
| 32> * xyz 0 1
| 33> C  -21.048   26.222   46.251
| 34> C  -20.361   27.558   45.944
| 35> C  -20.329   28.222   47.341
| 36> C  -20.110   27.022   48.296
| 37> O  -20.473   25.807   47.535
| 38> H  -20.833   25.428   45.533
| 39> H  -19.344   27.382   45.576
| 40> H  -20.898   28.157   45.201
| 41> H  -19.543   28.978   47.434
| 42> H  -21.289   28.710   47.548
| 43> H  -20.733   27.082   49.195
| 44> H  -19.064   26.913   48.597
| 45> C  -23.430   25.483   45.442
| 46> H  -22.991   25.488   44.437
| 47> H  -23.428   24.449   45.811
| 48> O  -22.586   26.394   46.375
| 49> C  -24.910   25.943   45.331
| 50> C  -25.566   26.046   46.713
| 51> C  -25.021   27.404   47.218
| 52> C  -24.946   28.255   45.926
| 53> O  -24.984   27.305   44.793
| 54> H  -25.435   25.292   44.630
| 55> H  -26.656   26.082   46.610
| 56> O  -25.201   24.865   47.652
| 57> H  -25.658   27.860   47.982
| 58> H  -24.022   27.271   47.651
| 59> H  -24.027   28.848   45.866
| 60> H  -25.806   28.923   45.815
| 61> H  -24.113   24.810   47.770
| 62> *
| 63>
| 64>                          ****END OF INPUT****
 Total Charge           Charge          ....    0
 Multiplicity           Mult            ....    1
 Number of Electrons    NEL             ....  102
FINAL SINGLE POINT ENERGY      -652.835406604885
FINAL SINGLE POINT ENERGY      -652.858442348148
FINAL SINGLE POINT ENERGY      -652.862746898435
FINAL SINGLE POINT ENERGY      -652.863956419885
FINAL SINGLE POINT ENERGY      -652.864077084177
FINAL SINGLE POINT ENERGY      -652.864094750113
                    ***********************HURRAY********************

CARTESIAN COORDINATES (ANGSTROEM)
---------------------------------
  C    -21.057512   26.171373   46.196813
  C    -20.412579   27.526377   45.907968
  C    -20.422199   28.188326   47.306059
  C    -20.178674   26.995363   48.256513
  O    -20.497695   25.778037   47.465876
  H    -20.823391   25.377177   45.482743
  H    -19.385607   27.372304   45.556413
  H    -20.964122   28.093992   45.155273
  H    -19.659406   28.965808   47.409566
  H    -21.400955   28.640589   47.494148
  H    -20.815716   27.014235   49.144427
  H    -19.133073   26.903035   48.564214
  C    -23.308343   25.476748   45.443158
  H    -22.893067   25.480201   44.426370
  H    -23.310051   24.444769   45.819638
  O    -22.497138   26.332233   46.303903
  C    -24.742330   25.987967   45.376211
  C    -25.479410   26.048734   46.725374
  C    -25.035042   27.440156   47.271877
  C    -24.938556   28.292341   45.988782
  O    -24.862596   27.340291   44.849667
  H    -25.271838   25.336773   44.669907
  H    -26.558542   26.011975   46.562584
  O    -25.193536   24.938978   47.609727
  H    -25.751098   27.843827   47.994148
  H    -24.057660   27.336471   47.747869
  H    -24.049860   28.929916   45.971027
  H    -25.828301   28.908638   45.825187
  H    -24.276703   25.022364   47.947556

 Multiplicity           Mult            ....    1
 Number of Electrons    NEL             ....  102
 Basis Dimension        Dim             ....  149

ORBITAL ENERGIES
----------------

  NO   OCC          E(Eh)            E(eV)
   0   2.0000     -19.150365      -521.1079
   1   2.0000     -19.144913      -520.9596
   2   2.0000     -19.136696      -520.7360
   3   2.0000     -19.134030      -520.6634
   4   2.0000     -10.285307      -279.8774
   5   2.0000     -10.235091      -278.5110
   6   2.0000     -10.233875      -278.4779
   7   2.0000     -10.231069      -278.4015
   8   2.0000     -10.230192      -278.3777
   9   2.0000     -10.222153      -278.1589
  10   2.0000     -10.190989      -277.3109
  11   2.0000     -10.189176      -277.2616
  12   2.0000     -10.178107      -276.9604
  13   2.0000      -1.058450       -28.8019
  14   2.0000      -1.026068       -27.9207
  15   2.0000      -1.008022       -27.4297
  16   2.0000      -0.998671       -27.1752
  17   2.0000      -0.791795       -21.5458
  18   2.0000      -0.772885       -21.0313
  19   2.0000      -0.765544       -20.8315
  20   2.0000      -0.733944       -19.9716
  21   2.0000      -0.678032       -18.4502
  22   2.0000      -0.603708       -16.4277
  23   2.0000      -0.601334       -16.3631
  24   2.0000      -0.595963       -16.2170
  25   2.0000      -0.575857       -15.6699
  26   2.0000      -0.528230       -14.3739
  27   2.0000      -0.507258       -13.8032
  28   2.0000      -0.498351       -13.5608
  29   2.0000      -0.487939       -13.2775
  30   2.0000      -0.474422       -12.9097
  31   2.0000      -0.461957       -12.5705
  32   2.0000      -0.439184       -11.9508
  33   2.0000      -0.435122       -11.8403
  34   2.0000      -0.422114       -11.4863
  35   2.0000      -0.415066       -11.2945
  36   2.0000      -0.402582       -10.9548
  37   2.0000      -0.397692       -10.8217
  38   2.0000      -0.379725       -10.3328
  39   2.0000      -0.371504       -10.1091
  40   2.0000      -0.361247        -9.8300
  41   2.0000      -0.354493        -9.6462
  42   2.0000      -0.348982        -9.4963
  43   2.0000      -0.327080        -8.9003
  44   2.0000      -0.320766        -8.7285
  45   2.0000      -0.312567        -8.5054
  46   2.0000      -0.304513        -8.2862
  47   2.0000      -0.272730        -7.4214
  48   2.0000      -0.261900        -7.1266
  49   2.0000      -0.253908        -6.9092
  50   2.0000      -0.239241        -6.5101
  51   0.0000       0.063415         1.7256
  52   0.0000       0.076269         2.0754
  53   0.0000       0.087261         2.3745
  54   0.0000       0.096390         2.6229
  55   0.0000       0.104883         2.8540

MULLIKEN ATOMIC CHARGES
-----------------------
   0 C :    0.286961
   1 C :   -0.253285
   2 C :   -0.304851
   3 C :   -0.003238
   4 O :   -0.504742
   5 H :    0.145665
   6 H :    0.145525
   7 H :    0.157098
   8 H :    0.145246
   9 H :    0.158580
  10 H :    0.147749
  11 H :    0.145072
  12 C :   -0.024412
  13 H :    0.145821
  14 H :    0.147246
  15 O :   -0.534242
  16 C :    0.085034
  17 C :    0.086154
  18 C :   -0.319852
  19 C :   -0.000708
  20 O :   -0.522328
  21 H :    0.152271
  22 H :    0.162879
  23 O :   -0.607495
  24 H :    0.144308
  25 H :    0.169519
  26 H :    0.140840
  27 H :    0.140716
  28 H :    0.368472
Sum of atomic charges:    0.0000000

LOEWDIN ATOMIC CHARGES
----------------------
   0 C :    0.177024
   1 C :   -0.220038
   2 C :   -0.216850
   3 C :   -0.027392
   4 O :   -0.318439
   5 H :    0.101979
   6 H :    0.114291
   7 H :    0.123518
   8 H :    0.115849
   9 H :    0.115683
  10 H :    0.105568
  11 H :    0.104137
  12 C :   -0.047319
  13 H :    0.103710
  14 H :    0.104076
  15 O :   -0.342669
  16 C :    0.017548
  17 C :    0.037972
  18 C :   -0.245112
  19 C :   -0.024546
  20 O :   -0.323889
  21 H :    0.115661
  22 H :    0.116344
  23 O :   -0.411706
  24 H :    0.114896
  25 H :    0.122578
  26 H :    0.101431
  27 H :    0.100526
  28 H :    0.285167

  Mayer bond orders larger than 0.100000
B(  0-C ,  1-C ) :   0.9417 B(  0-C ,  4-O ) :   0.9312 B(  0-C ,  5-H ) :   0.9194
B(  0-C , 15-O ) :   0.8320 B(  1-C ,  2-C ) :   0.9560 B(  1-C ,  6-H ) :   0.9362
B(  1-C ,  7-H ) :   0.9359 B(  2-C ,  3-C ) :   0.9537 B(  2-C ,  8-H ) :   0.9448
B(  2-C ,  9-H ) :   0.9433 B(  3-C ,  4-O ) :   0.8372 B(  3-C , 10-H ) :   0.9352
B(  3-C , 11-H ) :   0.9395 B( 12-C , 13-H ) :   0.9212 B( 12-C , 14-H ) :   0.9027
B( 12-C , 15-O ) :   0.8297 B( 12-C , 16-C ) :   0.9161 B( 16-C , 17-C ) :   0.8873
B( 16-C , 20-O ) :   0.8814 B( 16-C , 21-H ) :   0.9273 B( 17-C , 18-C ) :   0.9313
B( 17-C , 22-H ) :   0.9357 B( 17-C , 23-O ) :   0.9061 B( 18-C , 19-C ) :   0.9468
B( 18-C , 24-H ) :   0.9411 B( 18-C , 25-H ) :   0.9250 B( 19-C , 20-O ) :   0.8374
B( 19-C , 26-H ) :   0.9320 B( 19-C , 27-H ) :   0.9374 B( 23-O , 28-H ) :   0.7888

FINAL SINGLE POINT ENERGY      -652.864095353588

DIPOLE MOMENT
-------------
                                X             Y             Z
Electronic contribution:     -2.41932      -4.32249      -1.23247
Nuclear contribution   :      3.23606       5.13797       1.25467
                        -----------------------------------------
Total Dipole Moment    :      0.81673       0.81549       0.02220
                        -----------------------------------------
Magnitude (a.u.)       :      1.15437
Magnitude (Debye)      :      2.93417

Rotational constants in cm-1:     0.044093     0.016407     0.015433
Rotational constants in MHz :  1321.887296   491.874581   462.680091

                             ****ORCA TERMINATED NORMALLY****
TOTAL RUN TIME: 0 days 0 hours 37 minutes 12 seconds 252 msec
