                         Program Version 4.2.0 -  RELEASE  -
|  1> # Test redundant internal optimization
|  2> #
|  3> ! RKS B3LYP  Opt TightSCF SmallPrint
|  4>
|  5> %basis
|  6>         Basis "6-31G"
|  7> end
|  8>
|  9> %geom
| 10> Constraints
| 11> { D 4  0  15  12  270.0   C } # D for Dihedral angle
| 12> { D 0  15  12  16  345.0   C } # D for Dihedral angle
| 13> { D 0  4  3  2   C } # D for Dihedral angle
| 14> { D 4  3  2  1   C } # D for Dihedral angle
| 15> { D 3  2  1  0   C } # D for Dihedral angle
| 16> { D 2  1  0  4   C } # D for Dihedral angle
| 17> { D 1  0  4  3   C } # D for Dihedral angle
| 18> { D 16  20  19  18   C } # D for Dihedral angle
| 19> { D 20  19  18  17   C } # D for Dihedral angle
| 20> { D 19  18  17  16   C } # D for Dihedral angle
| 21> { D 18  17  16  20   C } # D for Dihedral angle
| 22> { D 17  16  20  19   C } # D for Dihedral angle
| 23> { D 15  12  16  20   C } # D for Dihedral angle
| 24> end
| 25> end
| 26>
| 27>
| 28> #%pal
| 29> #nprocs 8
| 30> #end
| 31>
| 32> * xyz 0 1
| 33> C  -21.048   26.222   46.251
| 34> C  -20.361   27.558   45.944
| 35> C  -20.329   28.222   47.341
| 36> C  -20.110   27.022   48.296
| 37> O  -20.473   25.807   47.535
| 38> H  -20.833   25.428   45.533
| 39> H  -19.344   27.382   45.576
| 40> H  -20.898   28.157   45.201
| 41> H  -19.543   28.978   47.434
| 42> H  -21.289   28.710   47.548
| 43> H  -20.733   27.082   49.195
| 44> H  -19.064   26.913   48.597
| 45> C  -23.420   25.119   46.072
| 46> H  -23.799   24.702   47.014
| 47> H  -24.279   25.364   45.435
| 48> O  -22.586   26.394   46.375
| 49> C  -22.594   24.019   45.349
| 50> C  -23.474   22.825   44.963
| 51> C  -24.177   23.352   43.690
| 52> C  -23.086   24.225   43.021
| 53> O  -22.084   24.520   44.068
| 54> H  -21.727   23.762   45.960
| 55> H  -22.850   21.956   44.728
| 56> O  -24.476   22.420   46.079
| 57> H  -24.528   22.548   43.035
| 58> H  -25.046   23.964   43.964
| 59> H  -23.484   25.168   42.629
| 60> H  -22.565   23.698   42.216
| 61> H  -25.114   23.274   46.331
| 62> *
| 63>
| 64>                          ****END OF INPUT****
 Total Charge           Charge          ....    0
 Multiplicity           Mult            ....    1
 Number of Electrons    NEL             ....  102
FINAL SINGLE POINT ENERGY      -652.826546565098
FINAL SINGLE POINT ENERGY      -652.850961829914
FINAL SINGLE POINT ENERGY      -652.855349347870
FINAL SINGLE POINT ENERGY      -652.857598364196
FINAL SINGLE POINT ENERGY      -652.857811092900
FINAL SINGLE POINT ENERGY      -652.857872127186
FINAL SINGLE POINT ENERGY      -652.857876172320
                    ***********************HURRAY********************

CARTESIAN COORDINATES (ANGSTROEM)
---------------------------------
  C    -20.917733   26.211134   46.212907
  C    -20.390560   27.629699   45.986679
  C    -20.456813   28.226014   47.414206
  C    -20.111242   27.013802   48.309851
  O    -20.322551   25.810955   47.471211
  H    -20.621546   25.481960   45.462008
  H    -19.354900   27.576747   45.631334
  H    -20.990984   28.177201   45.258133
  H    -19.762749   29.059804   47.557480
  H    -21.472236   28.578325   47.616801
  H    -20.746319   26.944018   49.197180
  H    -19.061076   27.001723   48.618287
  C    -23.219417   25.179834   46.041222
  H    -23.611988   24.812977   46.998895
  H    -24.050527   25.589210   45.455217
  O    -22.355124   26.322051   46.314944
  C    -22.584373   23.994517   45.314198
  C    -23.586282   22.864572   45.010822
  C    -24.269471   23.382267   43.706209
  C    -23.109669   24.101513   42.979961
  O    -22.060883   24.361207   43.999942
  H    -21.734788   23.620607   45.892314
  H    -23.033557   21.944262   44.809241
  O    -24.489917   22.513866   46.082777
  H    -24.699878   22.568423   43.117328
  H    -25.076700   24.079443   43.964124
  H    -23.411073   25.052908   42.531256
  H    -22.653284   23.475808   42.207603
  H    -25.158364   23.216149   46.217871

 Multiplicity           Mult            ....    1
 Number of Electrons    NEL             ....  102
 Basis Dimension        Dim             ....  149

ORBITAL ENERGIES
----------------

  NO   OCC          E(Eh)            E(eV)
   0   2.0000     -19.153233      -521.1860
   1   2.0000     -19.146216      -520.9950
   2   2.0000     -19.134042      -520.6638
   3   2.0000     -19.126952      -520.4708
   4   2.0000     -10.264291      -279.3056
   5   2.0000     -10.250671      -278.9349
   6   2.0000     -10.237044      -278.5641
   7   2.0000     -10.236392      -278.5464
   8   2.0000     -10.229893      -278.3695
   9   2.0000     -10.215076      -277.9664
  10   2.0000     -10.200003      -277.5562
  11   2.0000     -10.175152      -276.8800
  12   2.0000     -10.173366      -276.8314
  13   2.0000      -1.044310       -28.4171
  14   2.0000      -1.036092       -28.1935
  15   2.0000      -1.021560       -27.7981
  16   2.0000      -0.982719       -26.7412
  17   2.0000      -0.788286       -21.4504
  18   2.0000      -0.778381       -21.1808
  19   2.0000      -0.764758       -20.8101
  20   2.0000      -0.727989       -19.8096
  21   2.0000      -0.678994       -18.4764
  22   2.0000      -0.617272       -16.7968
  23   2.0000      -0.602801       -16.4030
  24   2.0000      -0.587557       -15.9882
  25   2.0000      -0.558578       -15.1997
  26   2.0000      -0.536187       -14.5904
  27   2.0000      -0.511276       -13.9125
  28   2.0000      -0.495255       -13.4766
  29   2.0000      -0.476322       -12.9614
  30   2.0000      -0.470153       -12.7935
  31   2.0000      -0.453543       -12.3415
  32   2.0000      -0.437214       -11.8972
  33   2.0000      -0.434488       -11.8230
  34   2.0000      -0.431896       -11.7525
  35   2.0000      -0.419595       -11.4178
  36   2.0000      -0.406212       -11.0536
  37   2.0000      -0.393555       -10.7092
  38   2.0000      -0.385007       -10.4766
  39   2.0000      -0.366338        -9.9686
  40   2.0000      -0.356907        -9.7119
  41   2.0000      -0.345573        -9.4035
  42   2.0000      -0.337881        -9.1942
  43   2.0000      -0.333026        -9.0621
  44   2.0000      -0.323519        -8.8034
  45   2.0000      -0.312345        -8.4993
  46   2.0000      -0.293890        -7.9971
  47   2.0000      -0.276380        -7.5207
  48   2.0000      -0.262464        -7.1420
  49   2.0000      -0.244805        -6.6615
  50   2.0000      -0.236710        -6.4412
  51   0.0000       0.048130         1.3097
  52   0.0000       0.074915         2.0385
  53   0.0000       0.087943         2.3931
  54   0.0000       0.095544         2.5999
  55   0.0000       0.102997         2.8027

MULLIKEN ATOMIC CHARGES
-----------------------
   0 C :    0.264137
   1 C :   -0.252237
   2 C :   -0.296915
   3 C :    0.000962
   4 O :   -0.514307
   5 H :    0.186089
   6 H :    0.141336
   7 H :    0.150841
   8 H :    0.134974
   9 H :    0.159250
  10 H :    0.143101
  11 H :    0.137585
  12 C :    0.029257
  13 H :    0.140299
  14 H :    0.130575
  15 O :   -0.537784
  16 C :    0.031582
  17 C :    0.085453
  18 C :   -0.324719
  19 C :   -0.008795
  20 O :   -0.521510
  21 H :    0.185195
  22 H :    0.170876
  23 O :   -0.593377
  24 H :    0.161061
  25 H :    0.136864
  26 H :    0.148546
  27 H :    0.154265
  28 H :    0.357399
Sum of atomic charges:   -0.0000000

LOEWDIN ATOMIC CHARGES
----------------------
   0 C :    0.166389
   1 C :   -0.213222
   2 C :   -0.216732
   3 C :   -0.027553
   4 O :   -0.333034
   5 H :    0.116565
   6 H :    0.111695
   7 H :    0.121229
   8 H :    0.110304
   9 H :    0.117630
  10 H :    0.103061
  11 H :    0.099873
  12 C :   -0.042918
  13 H :    0.104546
  14 H :    0.099479
  15 O :   -0.325926
  16 C :   -0.000989
  17 C :    0.039881
  18 C :   -0.242011
  19 C :   -0.028440
  20 O :   -0.327139
  21 H :    0.125447
  22 H :    0.120937
  23 O :   -0.402033
  24 H :    0.124406
  25 H :    0.105879
  26 H :    0.105267
  27 H :    0.108322
  28 H :    0.279084

  Mayer bond orders larger than 0.100000
B(  0-C ,  1-C ) :   0.9460 B(  0-C ,  4-O ) :   0.9003 B(  0-C ,  5-H ) :   0.8962
B(  0-C , 15-O ) :   0.8497 B(  1-C ,  2-C ) :   0.9570 B(  1-C ,  6-H ) :   0.9415
B(  1-C ,  7-H ) :   0.9385 B(  2-C ,  3-C ) :   0.9551 B(  2-C ,  8-H ) :   0.9461
B(  2-C ,  9-H ) :   0.9445 B(  3-C ,  4-O ) :   0.8427 B(  3-C , 10-H ) :   0.9360
B(  3-C , 11-H ) :   0.9406 B( 12-C , 13-H ) :   0.9058 B( 12-C , 14-H ) :   0.9314
B( 12-C , 15-O ) :   0.8515 B( 12-C , 16-C ) :   0.9068 B( 16-C , 17-C ) :   0.8694
B( 16-C , 20-O ) :   0.8358 B( 16-C , 21-H ) :   0.9185 B( 17-C , 18-C ) :   0.9213
B( 17-C , 22-H ) :   0.9330 B( 17-C , 23-O ) :   0.9088 B( 18-C , 19-C ) :   0.9411
B( 18-C , 24-H ) :   0.9409 B( 18-C , 25-H ) :   0.9398 B( 19-C , 20-O ) :   0.8373
B( 19-C , 26-H ) :   0.9318 B( 19-C , 27-H ) :   0.9377 B( 23-O , 28-H ) :   0.7963

FINAL SINGLE POINT ENERGY      -652.857877198693

DIPOLE MOMENT
-------------
                                X             Y             Z
Electronic contribution:      0.03934      -3.51806       0.85285
Nuclear contribution   :     -0.77342       3.94703      -1.61200
                        -----------------------------------------
Total Dipole Moment    :     -0.73408       0.42897      -0.75915
                        -----------------------------------------
Magnitude (a.u.)       :      1.13983
Magnitude (Debye)      :      2.89721

Rotational constants in cm-1:     0.058912     0.013238     0.011991
Rotational constants in MHz :  1766.144150   396.874643   359.468972

                             ****ORCA TERMINATED NORMALLY****
TOTAL RUN TIME: 0 days 0 hours 23 minutes 10 seconds 723 msec
