                         Program Version 4.2.0 -  RELEASE  -
|  1> # Test redundant internal optimization
|  2> #
|  3> ! RKS B3LYP  Opt TightSCF SmallPrint
|  4>
|  5> %basis
|  6>         Basis "6-31G"
|  7> end
|  8>
|  9> %geom
| 10> Constraints
| 11> { D 4  0  15  12  210.0   C } # D for Dihedral angle
| 12> { D 0  15  12  16  225.0   C } # D for Dihedral angle
| 13> { D 0  4  3  2   C } # D for Dihedral angle
| 14> { D 4  3  2  1   C } # D for Dihedral angle
| 15> { D 3  2  1  0   C } # D for Dihedral angle
| 16> { D 2  1  0  4   C } # D for Dihedral angle
| 17> { D 1  0  4  3   C } # D for Dihedral angle
| 18> { D 16  20  19  18   C } # D for Dihedral angle
| 19> { D 20  19  18  17   C } # D for Dihedral angle
| 20> { D 19  18  17  16   C } # D for Dihedral angle
| 21> { D 18  17  16  20   C } # D for Dihedral angle
| 22> { D 17  16  20  19   C } # D for Dihedral angle
| 23> { D 15  12  16  20   C } # D for Dihedral angle
| 24> end
| 25> end
| 26>
| 27>
| 28> #%pal
| 29> #nprocs 8
| 30> #end
| 31>
| 32> * xyz 0 1
| 33> C  -21.048   26.222   46.251
| 34> C  -20.361   27.558   45.944
| 35> C  -20.329   28.222   47.341
| 36> C  -20.110   27.022   48.296
| 37> O  -20.473   25.807   47.535
| 38> H  -20.833   25.428   45.533
| 39> H  -19.344   27.382   45.576
| 40> H  -20.898   28.157   45.201
| 41> H  -19.543   28.978   47.434
| 42> H  -21.289   28.710   47.548
| 43> H  -20.733   27.082   49.195
| 44> H  -19.064   26.913   48.597
| 45> C  -23.389   26.110   45.076
| 46> H  -22.700   26.085   44.223
| 47> H  -23.892   25.137   45.140
| 48> O  -22.586   26.394   46.375
| 49> C  -24.475   27.185   44.795
| 50> C  -23.844   28.555   44.522
| 51> C  -23.392   28.405   43.049
| 52> C  -24.502   27.518   42.430
| 53> O  -25.201   26.869   43.560
| 54> H  -25.205   27.177   45.606
| 55> O  -24.917   29.671   44.655
| 56> H  -23.016   28.791   45.199
| 57> H  -23.292   29.366   42.536
| 58> H  -22.421   27.898   43.005
| 59> H  -24.099   26.745   41.767
| 60> H  -25.246   28.102   41.882
| 61> H  -25.757   29.457   43.984
| 62> *
| 63>
| 64>                          ****END OF INPUT****
 Total Charge           Charge          ....    0
 Multiplicity           Mult            ....    1
 Number of Electrons    NEL             ....  102
FINAL SINGLE POINT ENERGY      -652.833399899309
FINAL SINGLE POINT ENERGY      -652.855487905903
FINAL SINGLE POINT ENERGY      -652.858895462008
FINAL SINGLE POINT ENERGY      -652.859504978248
FINAL SINGLE POINT ENERGY      -652.859589915466
FINAL SINGLE POINT ENERGY      -652.859600090368
                    ***********************HURRAY********************

CARTESIAN COORDINATES (ANGSTROEM)
---------------------------------
  C    -21.094590   26.197038   46.203709
  C    -20.372502   27.503557   45.880136
  C    -20.418214   28.242204   47.240540
  C    -20.278883   27.091061   48.258843
  O    -20.618316   25.851940   47.511449
  H    -20.864283   25.358951   45.538354
  H    -19.337142   27.280113   45.595482
  H    -20.838032   28.064370   45.066080
  H    -19.623929   28.987940   47.339986
  H    -21.382408   28.745986   47.358882
  H    -20.959867   27.181656   49.108378
  H    -19.255191   26.965863   48.623463
  C    -23.312479   26.074298   45.081430
  H    -22.653451   25.968519   44.207593
  H    -23.841014   25.124935   45.221453
  O    -22.539623   26.380708   46.278365
  C    -24.339249   27.181974   44.827527
  C    -23.772518   28.580603   44.544607
  C    -23.375097   28.463067   43.049481
  C    -24.474301   27.539888   42.466304
  O    -25.102706   26.850500   43.619132
  H    -25.048376   27.218724   45.659212
  O    -24.790539   29.599308   44.748132
  H    -22.952050   28.854918   45.203886
  H    -23.351904   29.447884   42.577121
  H    -22.381997   28.011319   42.949736
  H    -24.078163   26.789399   41.775290
  H    -25.264439   28.100118   41.956419
  H    -25.637739   29.289159   44.364011

 Multiplicity           Mult            ....    1
 Number of Electrons    NEL             ....  102
 Basis Dimension        Dim             ....  149

ORBITAL ENERGIES
----------------

  NO   OCC          E(Eh)            E(eV)
   0   2.0000     -19.148939      -521.0691
   1   2.0000     -19.142858      -520.9037
   2   2.0000     -19.142347      -520.8897
   3   2.0000     -19.139666      -520.8168
   4   2.0000     -10.283902      -279.8392
   5   2.0000     -10.241827      -278.6943
   6   2.0000     -10.236427      -278.5474
   7   2.0000     -10.235877      -278.5324
   8   2.0000     -10.234568      -278.4968
   9   2.0000     -10.226467      -278.2763
  10   2.0000     -10.193497      -277.3792
  11   2.0000     -10.191173      -277.3159
  12   2.0000     -10.188944      -277.2553
  13   2.0000      -1.055015       -28.7084
  14   2.0000      -1.040456       -28.3122
  15   2.0000      -1.008675       -27.4475
  16   2.0000      -0.996649       -27.1202
  17   2.0000      -0.790035       -21.4979
  18   2.0000      -0.783739       -21.3266
  19   2.0000      -0.771202       -20.9855
  20   2.0000      -0.734334       -19.9822
  21   2.0000      -0.678382       -18.4597
  22   2.0000      -0.608507       -16.5583
  23   2.0000      -0.603273       -16.4159
  24   2.0000      -0.594116       -16.1667
  25   2.0000      -0.587300       -15.9813
  26   2.0000      -0.526088       -14.3156
  27   2.0000      -0.520835       -14.1726
  28   2.0000      -0.497781       -13.5453
  29   2.0000      -0.494574       -13.4580
  30   2.0000      -0.476138       -12.9564
  31   2.0000      -0.458949       -12.4886
  32   2.0000      -0.456120       -12.4117
  33   2.0000      -0.441079       -12.0024
  34   2.0000      -0.424991       -11.5646
  35   2.0000      -0.418397       -11.3852
  36   2.0000      -0.408585       -11.1182
  37   2.0000      -0.396254       -10.7826
  38   2.0000      -0.377936       -10.2842
  39   2.0000      -0.373073       -10.1518
  40   2.0000      -0.364832        -9.9276
  41   2.0000      -0.359846        -9.7919
  42   2.0000      -0.355205        -9.6656
  43   2.0000      -0.334281        -9.0962
  44   2.0000      -0.314742        -8.5646
  45   2.0000      -0.313020        -8.5177
  46   2.0000      -0.308234        -8.3875
  47   2.0000      -0.274670        -7.4742
  48   2.0000      -0.265093        -7.2135
  49   2.0000      -0.260799        -7.0967
  50   2.0000      -0.241895        -6.5823
  51   0.0000       0.060341         1.6420
  52   0.0000       0.065520         1.7829
  53   0.0000       0.083042         2.2597
  54   0.0000       0.093001         2.5307
  55   0.0000       0.100980         2.7478

MULLIKEN ATOMIC CHARGES
-----------------------
   0 C :    0.294460
   1 C :   -0.271026
   2 C :   -0.305174
   3 C :   -0.001512
   4 O :   -0.499831
   5 H :    0.140317
   6 H :    0.146407
   7 H :    0.140781
   8 H :    0.144409
   9 H :    0.167902
  10 H :    0.157076
  11 H :    0.142628
  12 C :   -0.006785
  13 H :    0.119632
  14 H :    0.160582
  15 O :   -0.517205
  16 C :    0.059345
  17 C :    0.080109
  18 C :   -0.299315
  19 C :   -0.031656
  20 O :   -0.526223
  21 H :    0.172464
  22 O :   -0.604064
  23 H :    0.170488
  24 H :    0.164416
  25 H :    0.140143
  26 H :    0.148350
  27 H :    0.148772
  28 H :    0.364508
Sum of atomic charges:   -0.0000000

LOEWDIN ATOMIC CHARGES
----------------------
   0 C :    0.181270
   1 C :   -0.230408
   2 C :   -0.217232
   3 C :   -0.024546
   4 O :   -0.304044
   5 H :    0.097326
   6 H :    0.114803
   7 H :    0.110902
   8 H :    0.115661
   9 H :    0.119389
  10 H :    0.110855
  11 H :    0.102844
  12 C :   -0.037112
  13 H :    0.090841
  14 H :    0.113640
  15 O :   -0.340304
  16 C :    0.014917
  17 C :    0.035535
  18 C :   -0.242037
  19 C :   -0.038560
  20 O :   -0.329815
  21 H :    0.120961
  22 O :   -0.413837
  23 H :    0.120904
  24 H :    0.127547
  25 H :    0.109274
  26 H :    0.104618
  27 H :    0.103853
  28 H :    0.282756

  Mayer bond orders larger than 0.100000
B(  0-C ,  1-C ) :   0.9297 B(  0-C ,  4-O ) :   0.9416 B(  0-C ,  5-H ) :   0.9212
B(  0-C , 15-O ) :   0.8341 B(  1-C ,  2-C ) :   0.9529 B(  1-C ,  6-H ) :   0.9334
B(  1-C ,  7-H ) :   0.9308 B(  2-C ,  3-C ) :   0.9536 B(  2-C ,  8-H ) :   0.9446
B(  2-C ,  9-H ) :   0.9400 B(  3-C ,  4-O ) :   0.8346 B(  3-C , 10-H ) :   0.9341
B(  3-C , 11-H ) :   0.9396 B( 12-C , 13-H ) :   0.9219 B( 12-C , 14-H ) :   0.9224
B( 12-C , 15-O ) :   0.8327 B( 12-C , 16-C ) :   0.9020 B( 16-C , 17-C ) :   0.9093
B( 16-C , 20-O ) :   0.8383 B( 16-C , 21-H ) :   0.9240 B( 17-C , 18-C ) :   0.9125
B( 17-C , 22-O ) :   0.8886 B( 17-C , 23-H ) :   0.9186 B( 18-C , 19-C ) :   0.9384
B( 18-C , 24-H ) :   0.9372 B( 18-C , 25-H ) :   0.9324 B( 19-C , 20-O ) :   0.8448
B( 19-C , 26-H ) :   0.9352 B( 19-C , 27-H ) :   0.9377 B( 22-O , 28-H ) :   0.7945

FINAL SINGLE POINT ENERGY      -652.859601836992

DIPOLE MOMENT
-------------
                                X             Y             Z
Electronic contribution:     -4.19401      -3.00648       1.99515
Nuclear contribution   :      5.01127       3.46228      -3.00335
                        -----------------------------------------
Total Dipole Moment    :      0.81727       0.45580      -1.00820
                        -----------------------------------------
Magnitude (a.u.)       :      1.37555
Magnitude (Debye)      :      3.49637

Rotational constants in cm-1:     0.053386     0.013945     0.012892
Rotational constants in MHz :  1600.478668   418.050917   386.480622

                             ****ORCA TERMINATED NORMALLY****
TOTAL RUN TIME: 0 days 0 hours 23 minutes 44 seconds 603 msec
