                         Program Version 4.2.0 -  RELEASE  -
|  1> # Test redundant internal optimization
|  2> #
|  3> ! RKS B3LYP  Opt TightSCF SmallPrint
|  4>
|  5> %basis
|  6>         Basis "6-31G"
|  7> end
|  8>
|  9> %geom
| 10> Constraints
| 11> { D 4  0  15  12  330.0   C } # D for Dihedral angle
| 12> { D 0  15  12  16  285.0   C } # D for Dihedral angle
| 13> { D 0  4  3  2   C } # D for Dihedral angle
| 14> { D 4  3  2  1   C } # D for Dihedral angle
| 15> { D 3  2  1  0   C } # D for Dihedral angle
| 16> { D 2  1  0  4   C } # D for Dihedral angle
| 17> { D 1  0  4  3   C } # D for Dihedral angle
| 18> { D 16  20  19  18   C } # D for Dihedral angle
| 19> { D 20  19  18  17   C } # D for Dihedral angle
| 20> { D 19  18  17  16   C } # D for Dihedral angle
| 21> { D 18  17  16  20   C } # D for Dihedral angle
| 22> { D 17  16  20  19   C } # D for Dihedral angle
| 23> { D 15  12  16  20   C } # D for Dihedral angle
| 24> end
| 25> end
| 26>
| 27>
| 28> #%pal
| 29> #nprocs 8
| 30> #end
| 31>
| 32> * xyz 0 1
| 33> C  -21.048   26.222   46.251
| 34> C  -20.361   27.558   45.944
| 35> C  -20.329   28.222   47.341
| 36> C  -20.110   27.022   48.296
| 37> O  -20.473   25.807   47.535
| 38> H  -20.833   25.428   45.533
| 39> H  -19.344   27.382   45.576
| 40> H  -20.898   28.157   45.201
| 41> H  -19.543   28.978   47.434
| 42> H  -21.289   28.710   47.548
| 43> H  -20.733   27.082   49.195
| 44> H  -19.064   26.913   48.597
| 45> C  -23.271   25.476   47.424
| 46> H  -22.687   25.488   48.353
| 47> H  -24.282   25.838   47.650
| 48> O  -22.586   26.394   46.375
| 49> C  -23.393   24.003   46.944
| 50> C  -24.175   23.152   47.951
| 51> C  -25.636   23.542   47.625
| 52> C  -25.609   23.751   46.090
| 53> O  -24.190   23.929   45.715
| 54> H  -22.399   23.621   46.705
| 55> O  -23.935   21.643   47.674
| 56> H  -23.902   23.360   48.992
| 57> H  -26.358   22.777   47.929
| 58> H  -25.900   24.475   48.136
| 59> H  -26.176   24.635   45.777
| 60> H  -25.980   22.879   45.543
| 61> H  -24.201   21.412   46.637
| 62> *
| 63>
| 64>                          ****END OF INPUT****
 Total Charge           Charge          ....    0
 Multiplicity           Mult            ....    1
 Number of Electrons    NEL             ....  102
FINAL SINGLE POINT ENERGY      -652.835469352617
FINAL SINGLE POINT ENERGY      -652.858331631134
FINAL SINGLE POINT ENERGY      -652.862541158995
FINAL SINGLE POINT ENERGY      -652.863327815031
FINAL SINGLE POINT ENERGY      -652.863441179800
FINAL SINGLE POINT ENERGY      -652.863455846215
                    ***********************HURRAY********************

CARTESIAN COORDINATES (ANGSTROEM)
---------------------------------
  C    -21.088667   26.160172   46.281335
  C    -20.469662   27.522424   45.969477
  C    -20.387867   28.159048   47.374162
  C    -20.076283   26.957358   48.292712
  O    -20.442793   25.743908   47.507836
  H    -20.885620   25.371786   45.551412
  H    -19.472372   27.375795   45.539506
  H    -21.080165   28.097618   45.270384
  H    -19.622180   28.938265   47.439673
  H    -21.354055   28.602860   47.632161
  H    -20.651357   26.963171   49.222781
  H    -19.012453   26.862755   48.527900
  C    -23.217787   25.513525   47.391849
  H    -22.679444   25.524007   48.346838
  H    -24.185498   26.006948   47.513710
  O    -22.524827   26.338737   46.414966
  C    -23.396942   24.061944   46.938577
  C    -24.180344   23.203913   47.943125
  C    -25.647642   23.564944   47.591583
  C    -25.598929   23.760661   46.055141
  O    -24.174923   23.961815   45.699648
  H    -22.418477   23.618219   46.731488
  O    -23.914618   21.788080   47.739881
  H    -23.924201   23.396772   48.985528
  H    -26.326194   22.765853   47.900481
  H    -25.945897   24.487163   48.102707
  H    -26.176345   24.628200   45.720271
  H    -25.948097   22.878802   45.508577
  H    -23.901363   21.601257   46.777293

 Multiplicity           Mult            ....    1
 Number of Electrons    NEL             ....  102
 Basis Dimension        Dim             ....  149

ORBITAL ENERGIES
----------------

  NO   OCC          E(Eh)            E(eV)
   0   2.0000     -19.147578      -521.0321
   1   2.0000     -19.138159      -520.7758
   2   2.0000     -19.137537      -520.7589
   3   2.0000     -19.136210      -520.7227
   4   2.0000     -10.275976      -279.6235
   5   2.0000     -10.240092      -278.6471
   6   2.0000     -10.230345      -278.3819
   7   2.0000     -10.228928      -278.3433
   8   2.0000     -10.227998      -278.3180
   9   2.0000     -10.226440      -278.2756
  10   2.0000     -10.187946      -277.2281
  11   2.0000     -10.187552      -277.2174
  12   2.0000     -10.184256      -277.1277
  13   2.0000      -1.054313       -28.6893
  14   2.0000      -1.032994       -28.1092
  15   2.0000      -1.003331       -27.3020
  16   2.0000      -0.990103       -26.9421
  17   2.0000      -0.791087       -21.5266
  18   2.0000      -0.779967       -21.2240
  19   2.0000      -0.763353       -20.7719
  20   2.0000      -0.733779       -19.9671
  21   2.0000      -0.670830       -18.2542
  22   2.0000      -0.603545       -16.4233
  23   2.0000      -0.600839       -16.3497
  24   2.0000      -0.599454       -16.3120
  25   2.0000      -0.568011       -15.4564
  26   2.0000      -0.522948       -14.2301
  27   2.0000      -0.510472       -13.8907
  28   2.0000      -0.495524       -13.4839
  29   2.0000      -0.490376       -13.3438
  30   2.0000      -0.472766       -12.8646
  31   2.0000      -0.458452       -12.4751
  32   2.0000      -0.449068       -12.2198
  33   2.0000      -0.438727       -11.9384
  34   2.0000      -0.421202       -11.4615
  35   2.0000      -0.408878       -11.1261
  36   2.0000      -0.397492       -10.8163
  37   2.0000      -0.390776       -10.6336
  38   2.0000      -0.374568       -10.1925
  39   2.0000      -0.367769       -10.0075
  40   2.0000      -0.359285        -9.7766
  41   2.0000      -0.356731        -9.7071
  42   2.0000      -0.349475        -9.5097
  43   2.0000      -0.332179        -9.0391
  44   2.0000      -0.329469        -8.9653
  45   2.0000      -0.307335        -8.3630
  46   2.0000      -0.296632        -8.0718
  47   2.0000      -0.268929        -7.3179
  48   2.0000      -0.265095        -7.2136
  49   2.0000      -0.261153        -7.1063
  50   2.0000      -0.233586        -6.3562
  51   0.0000       0.068276         1.8579
  52   0.0000       0.081443         2.2162
  53   0.0000       0.089491         2.4352
  54   0.0000       0.098080         2.6689
  55   0.0000       0.106284         2.8921

MULLIKEN ATOMIC CHARGES
-----------------------
   0 C :    0.289282
   1 C :   -0.258839
   2 C :   -0.300858
   3 C :   -0.013349
   4 O :   -0.517766
   5 H :    0.158011
   6 H :    0.144336
   7 H :    0.163749
   8 H :    0.144238
   9 H :    0.158710
  10 H :    0.142778
  11 H :    0.149329
  12 C :   -0.010748
  13 H :    0.144632
  14 H :    0.146245
  15 O :   -0.517474
  16 C :    0.051127
  17 C :    0.078971
  18 C :   -0.296467
  19 C :   -0.028419
  20 O :   -0.513234
  21 H :    0.173649
  22 O :   -0.601857
  23 H :    0.151249
  24 H :    0.162323
  25 H :    0.142001
  26 H :    0.148500
  27 H :    0.145172
  28 H :    0.364710
Sum of atomic charges:   -0.0000000

LOEWDIN ATOMIC CHARGES
----------------------
   0 C :    0.175648
   1 C :   -0.214086
   2 C :   -0.217501
   3 C :   -0.030525
   4 O :   -0.327511
   5 H :    0.101788
   6 H :    0.113581
   7 H :    0.127742
   8 H :    0.115390
   9 H :    0.117323
  10 H :    0.101748
  11 H :    0.106178
  12 C :   -0.045471
  13 H :    0.104786
  14 H :    0.110155
  15 O :   -0.323872
  16 C :    0.004605
  17 C :    0.036532
  18 C :   -0.241476
  19 C :   -0.038307
  20 O :   -0.325523
  21 H :    0.119875
  22 O :   -0.414666
  23 H :    0.115118
  24 H :    0.126366
  25 H :    0.111770
  26 H :    0.105161
  27 H :    0.101981
  28 H :    0.283191

  Mayer bond orders larger than 0.100000
B(  0-C ,  1-C ) :   0.9453 B(  0-C ,  4-O ) :   0.8937 B(  0-C ,  5-H ) :   0.9204
B(  0-C , 15-O ) :   0.8506 B(  1-C ,  2-C ) :   0.9531 B(  1-C ,  6-H ) :   0.9382
B(  1-C ,  7-H ) :   0.9351 B(  2-C ,  3-C ) :   0.9552 B(  2-C ,  8-H ) :   0.9449
B(  2-C ,  9-H ) :   0.9449 B(  3-C ,  4-O ) :   0.8317 B(  3-C , 10-H ) :   0.9344
B(  3-C , 11-H ) :   0.9407 B( 12-C , 13-H ) :   0.9061 B( 12-C , 14-H ) :   0.9390
B( 12-C , 15-O ) :   0.8608 B( 12-C , 16-C ) :   0.8783 B( 16-C , 17-C ) :   0.8996
B( 16-C , 20-O ) :   0.8587 B( 16-C , 21-H ) :   0.9214 B( 17-C , 18-C ) :   0.9118
B( 17-C , 22-O ) :   0.8928 B( 17-C , 23-H ) :   0.9333 B( 18-C , 19-C ) :   0.9397
B( 18-C , 24-H ) :   0.9377 B( 18-C , 25-H ) :   0.9346 B( 19-C , 20-O ) :   0.8515
B( 19-C , 26-H ) :   0.9340 B( 19-C , 27-H ) :   0.9377 B( 22-O , 28-H ) :   0.7942

FINAL SINGLE POINT ENERGY      -652.863458432606

DIPOLE MOMENT
-------------
                                X             Y             Z
Electronic contribution:      0.09751      -4.17061      -2.01181
Nuclear contribution   :     -0.23025       5.09481       2.37737
                        -----------------------------------------
Total Dipole Moment    :     -0.13274       0.92420       0.36557
                        -----------------------------------------
Magnitude (a.u.)       :      1.00269
Magnitude (Debye)      :      2.54865

Rotational constants in cm-1:     0.061934     0.012735     0.011862
Rotational constants in MHz :  1856.736927   381.771270   355.614068

                             ****ORCA TERMINATED NORMALLY****
TOTAL RUN TIME: 0 days 0 hours 20 minutes 58 seconds 141 msec
