                         Program Version 4.2.0 -  RELEASE  -
|  1> # Test redundant internal optimization
|  2> #
|  3> ! RKS B3LYP  Opt TightSCF SmallPrint
|  4>
|  5> %basis
|  6>         Basis "6-31G"
|  7> end
|  8>
|  9> %geom
| 10> Constraints
| 11> { D 4  0  15  12  240.0   C } # D for Dihedral angle
| 12> { D 0  15  12  16  180.0   C } # D for Dihedral angle
| 13> { D 0  4  3  2   C } # D for Dihedral angle
| 14> { D 4  3  2  1   C } # D for Dihedral angle
| 15> { D 3  2  1  0   C } # D for Dihedral angle
| 16> { D 2  1  0  4   C } # D for Dihedral angle
| 17> { D 1  0  4  3   C } # D for Dihedral angle
| 18> { D 16  20  19  18   C } # D for Dihedral angle
| 19> { D 20  19  18  17   C } # D for Dihedral angle
| 20> { D 19  18  17  16   C } # D for Dihedral angle
| 21> { D 18  17  16  20   C } # D for Dihedral angle
| 22> { D 17  16  20  19   C } # D for Dihedral angle
| 23> { D 15  12  16  20   C } # D for Dihedral angle
| 24> end
| 25> end
| 26>
| 27>
| 28> #%pal
| 29> #nprocs 8
| 30> #end
| 31>
| 32> * xyz 0 1
| 33> C  -21.048   26.222   46.251
| 34> C  -20.361   27.558   45.944
| 35> C  -20.329   28.222   47.341
| 36> C  -20.110   27.022   48.296
| 37> O  -20.473   25.807   47.535
| 38> H  -20.833   25.428   45.533
| 39> H  -19.344   27.382   45.576
| 40> H  -20.898   28.157   45.201
| 41> H  -19.543   28.978   47.434
| 42> H  -21.289   28.710   47.548
| 43> H  -20.733   27.082   49.195
| 44> H  -19.064   26.913   48.597
| 45> C  -23.430   25.483   45.442
| 46> H  -23.166   25.691   44.398
| 47> H  -23.219   24.425   45.645
| 48> O  -22.586   26.394   46.375
| 49> C  -24.959   25.701   45.612
| 50> C  -25.389   25.515   47.072
| 51> C  -24.971   26.868   47.696
| 52> C  -25.231   27.879   46.552
| 53> O  -25.316   27.089   45.304
| 54> H  -25.492   25.068   44.901
| 55> O  -26.928   25.326   47.154
| 56> H  -24.909   24.658   47.557
| 57> H  -25.534   27.110   48.603
| 58> H  -23.906   26.848   47.959
| 59> H  -24.430   28.619   46.455
| 60> H  -26.185   28.403   46.666
| 61> H  -27.429   26.174   46.675
| 62> *
| 63>
| 64>                          ****END OF INPUT****
 Total Charge           Charge          ....    0
 Multiplicity           Mult            ....    1
 Number of Electrons    NEL             ....  102
FINAL SINGLE POINT ENERGY      -652.836861989272
FINAL SINGLE POINT ENERGY      -652.859395849227
FINAL SINGLE POINT ENERGY      -652.863158203968
FINAL SINGLE POINT ENERGY      -652.864133175438
FINAL SINGLE POINT ENERGY      -652.864247392020
FINAL SINGLE POINT ENERGY      -652.864259406051
                    ***********************HURRAY********************

CARTESIAN COORDINATES (ANGSTROEM)
---------------------------------
  C    -21.086778   26.173948   46.206723
  C    -20.431147   27.520327   45.902113
  C    -20.427362   28.195258   47.294091
  C    -20.189603   27.008629   48.254027
  O    -20.523789   25.787413   47.476333
  H    -20.861442   25.370647   45.499573
  H    -19.407461   27.354728   45.546112
  H    -20.981870   28.087332   45.148208
  H    -19.657233   28.966986   47.386309
  H    -21.401544   28.657027   47.482392
  H    -20.821882   27.041221   49.144754
  H    -19.143057   26.909807   48.556856
  C    -23.336880   25.492347   45.468691
  H    -23.098834   25.687477   44.413678
  H    -23.131509   24.432687   45.685703
  O    -22.523692   26.349441   46.318444
  C    -24.820239   25.776288   45.682127
  C    -25.368728   25.567627   47.101579
  C    -25.013419   26.917379   47.779198
  C    -25.186473   27.940810   46.630053
  O    -25.161522   27.164408   45.367381
  H    -25.375097   25.148641   44.974688
  O    -26.803631   25.324263   47.062559
  H    -24.945141   24.702920   47.613119
  H    -25.676693   27.110227   48.627088
  H    -23.977112   26.889139   48.117168
  H    -24.377532   28.676340   46.603404
  H    -26.147090   28.465438   46.665621
  H    -27.228242   26.013245   46.509007

 Multiplicity           Mult            ....    1
 Number of Electrons    NEL             ....  102
 Basis Dimension        Dim             ....  149

ORBITAL ENERGIES
----------------

  NO   OCC          E(Eh)            E(eV)
   0   2.0000     -19.147216      -521.0222
   1   2.0000     -19.142375      -520.8905
   2   2.0000     -19.137128      -520.7477
   3   2.0000     -19.132908      -520.6329
   4   2.0000     -10.283340      -279.8239
   5   2.0000     -10.236266      -278.5430
   6   2.0000     -10.234753      -278.5018
   7   2.0000     -10.234068      -278.4832
   8   2.0000     -10.227910      -278.3156
   9   2.0000     -10.222233      -278.1611
  10   2.0000     -10.189010      -277.2571
  11   2.0000     -10.187755      -277.2229
  12   2.0000     -10.174310      -276.8571
  13   2.0000      -1.056642       -28.7527
  14   2.0000      -1.031261       -28.0620
  15   2.0000      -1.003356       -27.3027
  16   2.0000      -0.995392       -27.0860
  17   2.0000      -0.790775       -21.5181
  18   2.0000      -0.776019       -21.1165
  19   2.0000      -0.763380       -20.7726
  20   2.0000      -0.732770       -19.9397
  21   2.0000      -0.674156       -18.3447
  22   2.0000      -0.601731       -16.3739
  23   2.0000      -0.597374       -16.2554
  24   2.0000      -0.594616       -16.1803
  25   2.0000      -0.581152       -15.8140
  26   2.0000      -0.527105       -14.3433
  27   2.0000      -0.503904       -13.7119
  28   2.0000      -0.498497       -13.5648
  29   2.0000      -0.484872       -13.1940
  30   2.0000      -0.476435       -12.9645
  31   2.0000      -0.458483       -12.4760
  32   2.0000      -0.446440       -12.1482
  33   2.0000      -0.439987       -11.9727
  34   2.0000      -0.422050       -11.4846
  35   2.0000      -0.410808       -11.1786
  36   2.0000      -0.404178       -10.9983
  37   2.0000      -0.386259       -10.5106
  38   2.0000      -0.374935       -10.2025
  39   2.0000      -0.368138       -10.0176
  40   2.0000      -0.359274        -9.7763
  41   2.0000      -0.356624        -9.7042
  42   2.0000      -0.351329        -9.5601
  43   2.0000      -0.326751        -8.8914
  44   2.0000      -0.320166        -8.7122
  45   2.0000      -0.311241        -8.4693
  46   2.0000      -0.300414        -8.1747
  47   2.0000      -0.270191        -7.3523
  48   2.0000      -0.265040        -7.2121
  49   2.0000      -0.250654        -6.8206
  50   2.0000      -0.242287        -6.5930
  51   0.0000       0.062990         1.7140
  52   0.0000       0.083219         2.2645
  53   0.0000       0.087778         2.3886
  54   0.0000       0.101367         2.7583
  55   0.0000       0.105323         2.8660

MULLIKEN ATOMIC CHARGES
-----------------------
   0 C :    0.288391
   1 C :   -0.252443
   2 C :   -0.304504
   3 C :   -0.002149
   4 O :   -0.503404
   5 H :    0.143054
   6 H :    0.144259
   7 H :    0.154103
   8 H :    0.144109
   9 H :    0.159518
  10 H :    0.149174
  11 H :    0.143442
  12 C :    0.002400
  13 H :    0.143254
  14 H :    0.136335
  15 O :   -0.525471
  16 C :    0.058948
  17 C :    0.076386
  18 C :   -0.291556
  19 C :   -0.019193
  20 O :   -0.526265
  21 H :    0.158916
  22 O :   -0.601975
  23 H :    0.155655
  24 H :    0.147003
  25 H :    0.178698
  26 H :    0.148097
  27 H :    0.134068
  28 H :    0.361150
Sum of atomic charges:   -0.0000000

LOEWDIN ATOMIC CHARGES
----------------------
   0 C :    0.177135
   1 C :   -0.220022
   2 C :   -0.216890
   3 C :   -0.027162
   4 O :   -0.317121
   5 H :    0.100777
   6 H :    0.113474
   7 H :    0.122282
   8 H :    0.115245
   9 H :    0.116467
  10 H :    0.106221
  11 H :    0.103314
  12 C :   -0.037084
  13 H :    0.101438
  14 H :    0.099310
  15 O :   -0.335303
  16 C :    0.014515
  17 C :    0.040435
  18 C :   -0.242725
  19 C :   -0.033513
  20 O :   -0.330686
  21 H :    0.117456
  22 O :   -0.416684
  23 H :    0.117912
  24 H :    0.117602
  25 H :    0.131796
  26 H :    0.105333
  27 H :    0.095485
  28 H :    0.280993

  Mayer bond orders larger than 0.100000
B(  0-C ,  1-C ) :   0.9419 B(  0-C ,  4-O ) :   0.9300 B(  0-C ,  5-H ) :   0.9193
B(  0-C , 15-O ) :   0.8348 B(  1-C ,  2-C ) :   0.9562 B(  1-C ,  6-H ) :   0.9364
B(  1-C ,  7-H ) :   0.9368 B(  2-C ,  3-C ) :   0.9540 B(  2-C ,  8-H ) :   0.9449
B(  2-C ,  9-H ) :   0.9435 B(  3-C ,  4-O ) :   0.8380 B(  3-C , 10-H ) :   0.9346
B(  3-C , 11-H ) :   0.9395 B( 12-C , 13-H ) :   0.9172 B( 12-C , 14-H ) :   0.9080
B( 12-C , 15-O ) :   0.8388 B( 12-C , 16-C ) :   0.9131 B( 16-C , 17-C ) :   0.9074
B( 16-C , 20-O ) :   0.8740 B( 16-C , 21-H ) :   0.9213 B( 17-C , 18-C ) :   0.9248
B( 17-C , 22-O ) :   0.8913 B( 17-C , 23-H ) :   0.9355 B( 18-C , 19-C ) :   0.9461
B( 18-C , 24-H ) :   0.9377 B( 18-C , 25-H ) :   0.9171 B( 19-C , 20-O ) :   0.8390
B( 19-C , 26-H ) :   0.9336 B( 19-C , 27-H ) :   0.9374 B( 22-O , 28-H ) :   0.7967

FINAL SINGLE POINT ENERGY      -652.864258552118

DIPOLE MOMENT
-------------
                                X             Y             Z
Electronic contribution:     -3.38538      -3.72301      -1.55944
Nuclear contribution   :      4.23504       4.45592       1.37392
                        -----------------------------------------
Total Dipole Moment    :      0.84966       0.73291      -0.18552
                        -----------------------------------------
Magnitude (a.u.)       :      1.13732
Magnitude (Debye)      :      2.89083

Rotational constants in cm-1:     0.053140     0.014086     0.013937
Rotational constants in MHz :  1593.082488   422.276497   417.808102

                             ****ORCA TERMINATED NORMALLY****
TOTAL RUN TIME: 0 days 0 hours 19 minutes 55 seconds 786 msec
