                         Program Version 4.2.0 -  RELEASE  -
|  1> # Test redundant internal optimization
|  2> #
|  3> ! RKS B3LYP  Opt TightSCF SmallPrint
|  4>
|  5> %basis
|  6>         Basis "6-31G"
|  7> end
|  8>
|  9> %geom
| 10> Constraints
| 11> { D 4  0  15  12  300.0   C } # D for Dihedral angle
| 12> { D 0  15  12  16  180.0   C } # D for Dihedral angle
| 13> { D 0  4  3  2   C } # D for Dihedral angle
| 14> { D 4  3  2  1   C } # D for Dihedral angle
| 15> { D 3  2  1  0   C } # D for Dihedral angle
| 16> { D 2  1  0  4   C } # D for Dihedral angle
| 17> { D 1  0  4  3   C } # D for Dihedral angle
| 18> { D 16  20  19  18   C } # D for Dihedral angle
| 19> { D 20  19  18  17   C } # D for Dihedral angle
| 20> { D 19  18  17  16   C } # D for Dihedral angle
| 21> { D 18  17  16  20   C } # D for Dihedral angle
| 22> { D 17  16  20  19   C } # D for Dihedral angle
| 23> { D 15  12  16  20   C } # D for Dihedral angle
| 24> end
| 25> end
| 26>
| 27>
| 28> #%pal
| 29> #nprocs 8
| 30> #end
| 31>
| 32> * xyz 0 1
| 33> C  -21.048   26.222   46.251
| 34> C  -20.361   27.558   45.944
| 35> C  -20.329   28.222   47.341
| 36> C  -20.110   27.022   48.296
| 37> O  -20.473   25.807   47.535
| 38> H  -20.833   25.428   45.533
| 39> H  -19.344   27.382   45.576
| 40> H  -20.898   28.157   45.201
| 41> H  -19.543   28.978   47.434
| 42> H  -21.289   28.710   47.548
| 43> H  -20.733   27.082   49.195
| 44> H  -19.064   26.913   48.597
| 45> C  -23.362   25.116   46.798
| 46> H  -23.185   24.325   46.059
| 47> H  -23.010   24.759   47.774
| 48> O  -22.586   26.394   46.375
| 49> C  -24.894   25.351   46.904
| 50> C  -25.501   25.691   45.539
| 51> C  -25.605   24.292   44.885
| 52> C  -25.941   23.369   46.083
| 53> O  -25.575   24.116   47.305
| 54> H  -25.089   26.091   47.683
| 55> O  -26.910   26.317   45.724
| 56> H  -24.889   26.388   44.956
| 57> H  -26.364   24.247   44.098
| 58> H  -24.643   24.013   44.439
| 59> H  -25.382   22.428   46.057
| 60> H  -27.009   23.144   46.150
| 61> H  -27.543   25.635   46.305
| 62> *
| 63>
| 64>                          ****END OF INPUT****
 Total Charge           Charge          ....    0
 Multiplicity           Mult            ....    1
 Number of Electrons    NEL             ....  102
FINAL SINGLE POINT ENERGY      -652.841300169218
FINAL SINGLE POINT ENERGY      -652.865994585288
FINAL SINGLE POINT ENERGY      -652.870013092362
FINAL SINGLE POINT ENERGY      -652.870728384027
FINAL SINGLE POINT ENERGY      -652.870829200791
FINAL SINGLE POINT ENERGY      -652.870840918256
FINAL SINGLE POINT ENERGY      -652.870843681370
                    ***********************HURRAY********************

CARTESIAN COORDINATES (ANGSTROEM)
---------------------------------
  C    -21.115569   26.122108   46.262326
  C    -20.565538   27.511310   45.939821
  C    -20.568845   28.181989   47.331466
  C    -20.220301   27.018695   48.285886
  O    -20.488529   25.771528   47.519477
  H    -20.855246   25.321297   45.561233
  H    -19.546894   27.413085   45.548312
  H    -21.180882   28.036988   45.206660
  H    -19.851902   29.005574   47.403371
  H    -21.567494   28.572180   47.546995
  H    -20.826432   27.011218   49.195128
  H    -19.161130   26.993015   48.558000
  C    -23.231403   25.023488   46.811052
  H    -23.028306   24.205408   46.103647
  H    -22.874371   24.717275   47.798360
  O    -22.548638   26.237164   46.375457
  C    -24.721042   25.347054   46.867274
  C    -25.356400   25.723385   45.521627
  C    -25.576050   24.329402   44.878436
  C    -25.926624   23.431739   46.091397
  O    -25.465454   24.159233   47.301236
  H    -24.896730   26.129335   47.610969
  O    -26.614405   26.425970   45.722851
  H    -24.732927   26.390355   44.928828
  H    -26.375406   24.370746   44.133797
  H    -24.661250   23.989015   44.381183
  H    -25.435092   22.455152   46.056279
  H    -27.004324   23.276450   46.201709
  H    -27.115817   25.986843   46.442223

 Multiplicity           Mult            ....    1
 Number of Electrons    NEL             ....  102
 Basis Dimension        Dim             ....  149

ORBITAL ENERGIES
----------------

  NO   OCC          E(Eh)            E(eV)
   0   2.0000     -19.149178      -521.0756
   1   2.0000     -19.143540      -520.9222
   2   2.0000     -19.143492      -520.9209
   3   2.0000     -19.133569      -520.6509
   4   2.0000     -10.281029      -279.7610
   5   2.0000     -10.234146      -278.4853
   6   2.0000     -10.231465      -278.4123
   7   2.0000     -10.230422      -278.3839
   8   2.0000     -10.227075      -278.2929
   9   2.0000     -10.226932      -278.2890
  10   2.0000     -10.187113      -277.2054
  11   2.0000     -10.186588      -277.1912
  12   2.0000     -10.186264      -277.1823
  13   2.0000      -1.058187       -28.7947
  14   2.0000      -1.034398       -28.1474
  15   2.0000      -1.002714       -27.2852
  16   2.0000      -0.996768       -27.1234
  17   2.0000      -0.791960       -21.5503
  18   2.0000      -0.777421       -21.1547
  19   2.0000      -0.766499       -20.8575
  20   2.0000      -0.729737       -19.8572
  21   2.0000      -0.672169       -18.2906
  22   2.0000      -0.602558       -16.3964
  23   2.0000      -0.600555       -16.3419
  24   2.0000      -0.588753       -16.0208
  25   2.0000      -0.582489       -15.8503
  26   2.0000      -0.522198       -14.2097
  27   2.0000      -0.516613       -14.0577
  28   2.0000      -0.495936       -13.4951
  29   2.0000      -0.491197       -13.3662
  30   2.0000      -0.470452       -12.8017
  31   2.0000      -0.456337       -12.4176
  32   2.0000      -0.449593       -12.2340
  33   2.0000      -0.437759       -11.9120
  34   2.0000      -0.423309       -11.5188
  35   2.0000      -0.409080       -11.1316
  36   2.0000      -0.402420       -10.9504
  37   2.0000      -0.390663       -10.6305
  38   2.0000      -0.376837       -10.2543
  39   2.0000      -0.366173        -9.9641
  40   2.0000      -0.358875        -9.7655
  41   2.0000      -0.355072        -9.6620
  42   2.0000      -0.349530        -9.5112
  43   2.0000      -0.340148        -9.2559
  44   2.0000      -0.323656        -8.8071
  45   2.0000      -0.306878        -8.3506
  46   2.0000      -0.299663        -8.1542
  47   2.0000      -0.272053        -7.4029
  48   2.0000      -0.265586        -7.2270
  49   2.0000      -0.257494        -7.0068
  50   2.0000      -0.246715        -6.7134
  51   0.0000       0.067225         1.8293
  52   0.0000       0.078360         2.1323
  53   0.0000       0.094487         2.5711
  54   0.0000       0.101639         2.7657
  55   0.0000       0.107715         2.9311

MULLIKEN ATOMIC CHARGES
-----------------------
   0 C :    0.295640
   1 C :   -0.264275
   2 C :   -0.298218
   3 C :   -0.006439
   4 O :   -0.514137
   5 H :    0.141974
   6 H :    0.146247
   7 H :    0.158752
   8 H :    0.142391
   9 H :    0.163681
  10 H :    0.148696
  11 H :    0.145020
  12 C :    0.006512
  13 H :    0.122123
  14 H :    0.167932
  15 O :   -0.533358
  16 C :    0.050483
  17 C :    0.090329
  18 C :   -0.301558
  19 C :   -0.031802
  20 O :   -0.526994
  21 H :    0.165067
  22 O :   -0.604409
  23 H :    0.172172
  24 H :    0.164055
  25 H :    0.142765
  26 H :    0.147189
  27 H :    0.147474
  28 H :    0.362690
Sum of atomic charges:   -0.0000000

LOEWDIN ATOMIC CHARGES
----------------------
   0 C :    0.173284
   1 C :   -0.214573
   2 C :   -0.215802
   3 C :   -0.028220
   4 O :   -0.328922
   5 H :    0.095173
   6 H :    0.114869
   7 H :    0.125012
   8 H :    0.114327
   9 H :    0.119861
  10 H :    0.106122
  11 H :    0.103935
  12 C :   -0.039466
  13 H :    0.090306
  14 H :    0.116040
  15 O :   -0.332202
  16 C :    0.017601
  17 C :    0.037920
  18 C :   -0.242719
  19 C :   -0.038620
  20 O :   -0.330412
  21 H :    0.117995
  22 O :   -0.415572
  23 H :    0.125506
  24 H :    0.127105
  25 H :    0.112593
  26 H :    0.104443
  27 H :    0.102977
  28 H :    0.281438

  Mayer bond orders larger than 0.100000
B(  0-C ,  1-C ) :   0.9508 B(  0-C ,  4-O ) :   0.9032 B(  0-C ,  5-H ) :   0.9200
B(  0-C , 15-O ) :   0.8536 B(  1-C ,  2-C ) :   0.9559 B(  1-C ,  6-H ) :   0.9398
B(  1-C ,  7-H ) :   0.9355 B(  2-C ,  3-C ) :   0.9554 B(  2-C ,  8-H ) :   0.9449
B(  2-C ,  9-H ) :   0.9441 B(  3-C ,  4-O ) :   0.8342 B(  3-C , 10-H ) :   0.9357
B(  3-C , 11-H ) :   0.9404 B( 12-C , 13-H ) :   0.9198 B( 12-C , 14-H ) :   0.9129
B( 12-C , 15-O ) :   0.8145 B( 12-C , 16-C ) :   0.9085 B( 16-C , 17-C ) :   0.9121
B( 16-C , 20-O ) :   0.8439 B( 16-C , 21-H ) :   0.9253 B( 17-C , 18-C ) :   0.9114
B( 17-C , 22-O ) :   0.8889 B( 17-C , 23-H ) :   0.9247 B( 18-C , 19-C ) :   0.9423
B( 18-C , 24-H ) :   0.9372 B( 18-C , 25-H ) :   0.9353 B( 19-C , 20-O ) :   0.8443
B( 19-C , 26-H ) :   0.9353 B( 19-C , 27-H ) :   0.9378 B( 22-O , 28-H ) :   0.7959

FINAL SINGLE POINT ENERGY      -652.870843934891

DIPOLE MOMENT
-------------
                                X             Y             Z
Electronic contribution:     -2.67799      -1.26940       1.42400
Nuclear contribution   :      3.26223       1.21788      -1.80719
                        -----------------------------------------
Total Dipole Moment    :      0.58424      -0.05151      -0.38320
                        -----------------------------------------
Magnitude (a.u.)       :      0.70059
Magnitude (Debye)      :      1.78075

Rotational constants in cm-1:     0.059426     0.012133     0.011456
Rotational constants in MHz :  1781.543499   363.726412   343.450877

                             ****ORCA TERMINATED NORMALLY****
TOTAL RUN TIME: 0 days 0 hours 53 minutes 17 seconds 685 msec
