                         Program Version 4.2.0 -  RELEASE  -
|  1> # Test redundant internal optimization
|  2> #
|  3> ! RKS B3LYP  Opt TightSCF SmallPrint
|  4>
|  5> %basis
|  6>         Basis "6-31G"
|  7> end
|  8>
|  9> %geom
| 10> Constraints
| 11> { D 4  0  15  12  345.0   C } # D for Dihedral angle
| 12> { D 0  15  12  16  135.0   C } # D for Dihedral angle
| 13> { D 0  4  3  2   C } # D for Dihedral angle
| 14> { D 4  3  2  1   C } # D for Dihedral angle
| 15> { D 3  2  1  0   C } # D for Dihedral angle
| 16> { D 2  1  0  4   C } # D for Dihedral angle
| 17> { D 1  0  4  3   C } # D for Dihedral angle
| 18> { D 16  20  19  18   C } # D for Dihedral angle
| 19> { D 20  19  18  17   C } # D for Dihedral angle
| 20> { D 19  18  17  16   C } # D for Dihedral angle
| 21> { D 18  17  16  20   C } # D for Dihedral angle
| 22> { D 17  16  20  19   C } # D for Dihedral angle
| 23> { D 15  12  16  20   C } # D for Dihedral angle
| 24> end
| 25> end
| 26>
| 27>
| 28> #%pal
| 29> #nprocs 8
| 30> #end
| 31>
| 32> * xyz 0 1
| 33> C  -21.048   26.222   46.251
| 34> C  -20.361   27.558   45.944
| 35> C  -20.329   28.222   47.341
| 36> C  -20.110   27.022   48.296
| 37> O  -20.473   25.807   47.535
| 38> H  -20.833   25.428   45.533
| 39> H  -19.344   27.382   45.576
| 40> H  -20.898   28.157   45.201
| 41> H  -19.543   28.978   47.434
| 42> H  -21.289   28.710   47.548
| 43> H  -20.733   27.082   49.195
| 44> H  -19.064   26.913   48.597
| 45> C  -23.221   25.764   47.645
| 46> H  -23.739   24.837   47.369
| 47> H  -22.444   25.517   48.380
| 48> O  -22.586   26.394   46.375
| 49> C  -24.243   26.708   48.337
| 50> C  -23.611   28.064   48.672
| 51> C  -23.650   28.776   47.298
| 52> C  -24.968   28.257   46.671
| 53> O  -25.339   27.037   47.420
| 54> H  -24.685   26.192   49.191
| 55> H  -24.230   28.597   49.401
| 56> O  -22.173   27.943   49.245
| 57> H  -23.630   29.867   47.384
| 58> H  -22.788   28.472   46.692
| 59> H  -24.859   28.009   45.610
| 60> H  -25.792   28.968   46.785
| 61> H  -21.535   27.411   48.531
| 62> *
| 63>
| 64>                          ****END OF INPUT****
 Total Charge           Charge          ....    0
 Multiplicity           Mult            ....    1
 Number of Electrons    NEL             ....  102
FINAL SINGLE POINT ENERGY      -652.753635977773
FINAL SINGLE POINT ENERGY      -652.825256566162
FINAL SINGLE POINT ENERGY      -652.845960524838
FINAL SINGLE POINT ENERGY      -652.850377451789
FINAL SINGLE POINT ENERGY      -652.851065635612
FINAL SINGLE POINT ENERGY      -652.851306366051
FINAL SINGLE POINT ENERGY      -652.851332830155
FINAL SINGLE POINT ENERGY      -652.851336575902
FINAL SINGLE POINT ENERGY      -652.851337416536
FINAL SINGLE POINT ENERGY      -652.851333549524
FINAL SINGLE POINT ENERGY      -652.851331340474
FINAL SINGLE POINT ENERGY      -652.851332681507
FINAL SINGLE POINT ENERGY      -652.851335768386
FINAL SINGLE POINT ENERGY      -652.851337831670
                    ***********************HURRAY********************

CARTESIAN COORDINATES (ANGSTROEM)
---------------------------------
  C    -21.022407   26.144363   46.364177
  C    -20.318363   27.413414   45.872654
  C    -20.057784   28.173687   47.201213
  C    -19.769730   27.024148   48.201308
  O    -20.306911   25.792693   47.565395
  H    -20.849604   25.294571   45.694261
  H    -19.375325   27.124935   45.397739
  H    -20.922137   27.977930   45.158856
  H    -19.211150   28.863109   47.128185
  H    -20.930771   28.766278   47.489213
  H    -20.218005   27.143642   49.192445
  H    -18.697408   26.857686   48.336072
  C    -23.203902   25.742951   47.602347
  H    -23.724425   24.838364   47.267463
  H    -22.490646   25.459989   48.385630
  O    -22.475290   26.274376   46.445361
  C    -24.270635   26.678294   48.185600
  C    -23.872747   28.051757   48.753121
  C    -23.859682   28.941089   47.470008
  C    -25.017027   28.340363   46.640854
  O    -25.288295   26.995874   47.192523
  H    -24.772723   26.082867   48.959428
  H    -24.662181   28.387494   49.429893
  O    -22.676292   28.080258   49.558113
  H    -24.002406   30.000497   47.700160
  H    -22.912759   28.810407   46.942703
  H    -24.764692   28.240216   45.581529
  H    -25.941662   28.919301   46.737778
  H    -21.903041   27.873446   49.002970

 Multiplicity           Mult            ....    1
 Number of Electrons    NEL             ....  102
 Basis Dimension        Dim             ....  149

ORBITAL ENERGIES
----------------

  NO   OCC          E(Eh)            E(eV)
   0   2.0000     -19.163272      -521.4592
   1   2.0000     -19.146198      -520.9945
   2   2.0000     -19.146150      -520.9932
   3   2.0000     -19.130775      -520.5749
   4   2.0000     -10.287567      -279.9389
   5   2.0000     -10.246579      -278.8236
   6   2.0000     -10.239661      -278.6353
   7   2.0000     -10.229720      -278.3648
   8   2.0000     -10.226880      -278.2876
   9   2.0000     -10.221230      -278.1338
  10   2.0000     -10.205967      -277.7185
  11   2.0000     -10.198943      -277.5273
  12   2.0000     -10.182913      -277.0912
  13   2.0000      -1.062588       -28.9145
  14   2.0000      -1.031764       -28.0757
  15   2.0000      -1.014233       -27.5987
  16   2.0000      -0.998308       -27.1654
  17   2.0000      -0.802700       -21.8426
  18   2.0000      -0.773253       -21.0413
  19   2.0000      -0.769441       -20.9376
  20   2.0000      -0.743349       -20.2276
  21   2.0000      -0.678525       -18.4636
  22   2.0000      -0.618981       -16.8433
  23   2.0000      -0.607318       -16.5260
  24   2.0000      -0.601247       -16.3608
  25   2.0000      -0.566610       -15.4182
  26   2.0000      -0.522073       -14.2063
  27   2.0000      -0.521213       -14.1829
  28   2.0000      -0.510563       -13.8931
  29   2.0000      -0.496039       -13.4979
  30   2.0000      -0.476441       -12.9646
  31   2.0000      -0.462706       -12.5909
  32   2.0000      -0.440884       -11.9971
  33   2.0000      -0.432727       -11.7751
  34   2.0000      -0.424351       -11.5472
  35   2.0000      -0.417650       -11.3648
  36   2.0000      -0.411576       -11.1996
  37   2.0000      -0.400511       -10.8985
  38   2.0000      -0.384296       -10.4572
  39   2.0000      -0.375166       -10.2088
  40   2.0000      -0.373501       -10.1635
  41   2.0000      -0.358120        -9.7449
  42   2.0000      -0.351868        -9.5748
  43   2.0000      -0.345598        -9.4042
  44   2.0000      -0.326986        -8.8977
  45   2.0000      -0.309192        -8.4135
  46   2.0000      -0.306894        -8.3510
  47   2.0000      -0.278127        -7.5682
  48   2.0000      -0.264285        -7.1916
  49   2.0000      -0.258314        -7.0291
  50   2.0000      -0.233700        -6.3593
  51   0.0000       0.050100         1.3633
  52   0.0000       0.079962         2.1759
  53   0.0000       0.088703         2.4137
  54   0.0000       0.092039         2.5045
  55   0.0000       0.098138         2.6705

MULLIKEN ATOMIC CHARGES
-----------------------
   0 C :    0.309596
   1 C :   -0.266853
   2 C :   -0.334088
   3 C :   -0.042122
   4 O :   -0.508349
   5 H :    0.157496
   6 H :    0.155950
   7 H :    0.163309
   8 H :    0.158645
   9 H :    0.154767
  10 H :    0.160850
  11 H :    0.161590
  12 C :   -0.023125
  13 H :    0.158111
  14 H :    0.155953
  15 O :   -0.541955
  16 C :    0.088184
  17 C :    0.068896
  18 C :   -0.317904
  19 C :   -0.005002
  20 O :   -0.518047
  21 H :    0.149985
  22 H :    0.163716
  23 O :   -0.620025
  24 H :    0.145333
  25 H :    0.157437
  26 H :    0.152800
  27 H :    0.140406
  28 H :    0.374445
Sum of atomic charges:   -0.0000000

LOEWDIN ATOMIC CHARGES
----------------------
   0 C :    0.180711
   1 C :   -0.217156
   2 C :   -0.228035
   3 C :   -0.043305
   4 O :   -0.314463
   5 H :    0.099380
   6 H :    0.120936
   7 H :    0.126638
   8 H :    0.123164
   9 H :    0.107820
  10 H :    0.106189
  11 H :    0.113489
  12 C :   -0.046956
  13 H :    0.113507
  14 H :    0.111785
  15 O :   -0.345765
  16 C :    0.013427
  17 C :    0.037529
  18 C :   -0.243938
  19 C :   -0.025508
  20 O :   -0.321503
  21 H :    0.114939
  22 H :    0.116990
  23 O :   -0.408659
  24 H :    0.116164
  25 H :    0.112707
  26 H :    0.107549
  27 H :    0.099873
  28 H :    0.272492

  Mayer bond orders larger than 0.100000
B(  0-C ,  1-C ) :   0.9289 B(  0-C ,  4-O ) :   0.8974 B(  0-C ,  5-H ) :   0.9282
B(  0-C , 15-O ) :   0.8633 B(  1-C ,  2-C ) :   0.9503 B(  1-C ,  6-H ) :   0.9357
B(  1-C ,  7-H ) :   0.9343 B(  2-C ,  3-C ) :   0.9442 B(  2-C ,  8-H ) :   0.9423
B(  2-C ,  9-H ) :   0.9188 B(  3-C ,  4-O ) :   0.8312 B(  3-C , 10-H ) :   0.9118
B(  3-C , 11-H ) :   0.9350 B( 12-C , 13-H ) :   0.9259 B( 12-C , 14-H ) :   0.8994
B( 12-C , 15-O ) :   0.8297 B( 12-C , 16-C ) :   0.9150 B( 16-C , 17-C ) :   0.8850
B( 16-C , 20-O ) :   0.8662 B( 16-C , 21-H ) :   0.9224 B( 17-C , 18-C ) :   0.9299
B( 17-C , 22-H ) :   0.9343 B( 17-C , 23-O ) :   0.9148 B( 18-C , 19-C ) :   0.9406
B( 18-C , 24-H ) :   0.9416 B( 18-C , 25-H ) :   0.9203 B( 19-C , 20-O ) :   0.8415
B( 19-C , 26-H ) :   0.9309 B( 19-C , 27-H ) :   0.9369 B( 23-O , 28-H ) :   0.7438

FINAL SINGLE POINT ENERGY      -652.851338010035

DIPOLE MOMENT
-------------
                                X             Y             Z
Electronic contribution:     -2.78103      -4.31955       0.80599
Nuclear contribution   :      3.84274       5.11856      -1.16993
                        -----------------------------------------
Total Dipole Moment    :      1.06171       0.79900      -0.36394
                        -----------------------------------------
Magnitude (a.u.)       :      1.37771
Magnitude (Debye)      :      3.50187

Rotational constants in cm-1:     0.043170     0.019161     0.017914
Rotational constants in MHz :  1294.215028   574.429976   537.058956

                             ****ORCA TERMINATED NORMALLY****
TOTAL RUN TIME: 0 days 0 hours 55 minutes 53 seconds 804 msec
