                         Program Version 4.2.0 -  RELEASE  -
|  1> # Test redundant internal optimization
|  2> #
|  3> ! RKS B3LYP  Opt TightSCF SmallPrint
|  4>
|  5> %basis
|  6>         Basis "6-31G"
|  7> end
|  8>
|  9> %geom
| 10> Constraints
| 11> { D 4  0  15  12  195.0   C } # D for Dihedral angle
| 12> { D 0  15  12  16  195.0   C } # D for Dihedral angle
| 13> { D 0  4  3  2   C } # D for Dihedral angle
| 14> { D 4  3  2  1   C } # D for Dihedral angle
| 15> { D 3  2  1  0   C } # D for Dihedral angle
| 16> { D 2  1  0  4   C } # D for Dihedral angle
| 17> { D 1  0  4  3   C } # D for Dihedral angle
| 18> { D 16  20  19  18   C } # D for Dihedral angle
| 19> { D 20  19  18  17   C } # D for Dihedral angle
| 20> { D 19  18  17  16   C } # D for Dihedral angle
| 21> { D 18  17  16  20   C } # D for Dihedral angle
| 22> { D 17  16  20  19   C } # D for Dihedral angle
| 23> { D 15  12  16  20   C } # D for Dihedral angle
| 24> end
| 25> end
| 26>
| 27>
| 28> #%pal
| 29> #nprocs 8
| 30> #end
| 31>
| 32> * xyz 0 1
| 33> C  -21.048   26.222   46.251
| 34> C  -20.361   27.558   45.944
| 35> C  -20.329   28.222   47.341
| 36> C  -20.110   27.022   48.296
| 37> O  -20.473   25.807   47.535
| 38> H  -20.833   25.428   45.533
| 39> H  -19.344   27.382   45.576
| 40> H  -20.898   28.157   45.201
| 41> H  -19.543   28.978   47.434
| 42> H  -21.289   28.710   47.548
| 43> H  -20.733   27.082   49.195
| 44> H  -19.064   26.913   48.597
| 45> C  -23.353   26.472   45.026
| 46> H  -22.814   27.139   44.342
| 47> H  -23.414   25.480   44.561
| 48> O  -22.586   26.394   46.375
| 49> C  -24.802   27.008   45.190
| 50> C  -25.592   26.175   46.206
| 51> C  -25.068   26.739   47.548
| 52> C  -24.842   28.239   47.235
| 53> O  -24.788   28.358   45.761
| 54> H  -25.269   27.082   44.206
| 55> O  -27.113   26.450   46.052
| 56> H  -25.424   25.097   46.104
| 57> H  -25.769   26.587   48.376
| 58> H  -24.122   26.254   47.817
| 59> H  -23.908   28.621   47.660
| 60> H  -25.670   28.867   47.578
| 61> H  -27.305   27.524   46.152
| 62> *
| 63>
| 64>                          ****END OF INPUT****
 Total Charge           Charge          ....    0
 Multiplicity           Mult            ....    1
 Number of Electrons    NEL             ....  102
FINAL SINGLE POINT ENERGY      -652.835827950864
FINAL SINGLE POINT ENERGY      -652.858593007092
FINAL SINGLE POINT ENERGY      -652.862500162339
FINAL SINGLE POINT ENERGY      -652.863419721928
FINAL SINGLE POINT ENERGY      -652.863544518660
FINAL SINGLE POINT ENERGY      -652.863557600794
                    ***********************HURRAY********************

CARTESIAN COORDINATES (ANGSTROEM)
---------------------------------
  C    -21.088574   26.230734   46.176761
  C    -20.385339   27.554853   45.887806
  C    -20.396624   28.233746   47.278263
  C    -20.220085   27.044464   48.244351
  O    -20.573194   25.832839   47.454226
  H    -20.878446   25.421164   45.469311
  H    -19.360326   27.352643   45.555668
  H    -20.883900   28.154570   45.121714
  H    -19.604416   28.980617   47.386167
  H    -21.360112   28.726999   47.436417
  H    -20.874971   27.093012   49.117615
  H    -19.185476   26.910712   48.572708
  C    -23.265706   26.467355   45.058616
  H    -22.761654   27.147874   44.358228
  H    -23.319060   25.470808   44.592600
  O    -22.530691   26.399386   46.310298
  C    -24.673412   27.006614   45.299935
  C    -25.568611   26.202610   46.254638
  C    -25.119316   26.742002   47.638264
  C    -24.812030   28.231572   47.348861
  O    -24.647345   28.350741   45.879036
  H    -25.161162   27.094841   44.321505
  O    -26.974127   26.466876   45.980689
  H    -25.456899   25.122460   46.156004
  H    -25.909889   26.605726   48.381893
  H    -24.216644   26.217594   47.955792
  H    -23.891586   28.566395   47.834119
  H    -25.630364   28.901647   47.633742
  H    -27.114042   27.436146   45.934772

 Multiplicity           Mult            ....    1
 Number of Electrons    NEL             ....  102
 Basis Dimension        Dim             ....  149

ORBITAL ENERGIES
----------------

  NO   OCC          E(Eh)            E(eV)
   0   2.0000     -19.147461      -521.0289
   1   2.0000     -19.144931      -520.9600
   2   2.0000     -19.138800      -520.7932
   3   2.0000     -19.133632      -520.6526
   4   2.0000     -10.284250      -279.8487
   5   2.0000     -10.236615      -278.5524
   6   2.0000     -10.235243      -278.5151
   7   2.0000     -10.235064      -278.5102
   8   2.0000     -10.228702      -278.3371
   9   2.0000     -10.223166      -278.1865
  10   2.0000     -10.189769      -277.2777
  11   2.0000     -10.189217      -277.2627
  12   2.0000     -10.173761      -276.8421
  13   2.0000      -1.058959       -28.8157
  14   2.0000      -1.032057       -28.0837
  15   2.0000      -1.004268       -27.3275
  16   2.0000      -0.996060       -27.1042
  17   2.0000      -0.790208       -21.5027
  18   2.0000      -0.777308       -21.1516
  19   2.0000      -0.763499       -20.7759
  20   2.0000      -0.734148       -19.9772
  21   2.0000      -0.675803       -18.3895
  22   2.0000      -0.604414       -16.4469
  23   2.0000      -0.597572       -16.2608
  24   2.0000      -0.595072       -16.1927
  25   2.0000      -0.577670       -15.7192
  26   2.0000      -0.528283       -14.3753
  27   2.0000      -0.504364       -13.7244
  28   2.0000      -0.499544       -13.5933
  29   2.0000      -0.486771       -13.2457
  30   2.0000      -0.478277       -13.0146
  31   2.0000      -0.457856       -12.4589
  32   2.0000      -0.449669       -12.2361
  33   2.0000      -0.443681       -12.0732
  34   2.0000      -0.417575       -11.3628
  35   2.0000      -0.412262       -11.2182
  36   2.0000      -0.405603       -11.0370
  37   2.0000      -0.387326       -10.5397
  38   2.0000      -0.376092       -10.2340
  39   2.0000      -0.369582       -10.0568
  40   2.0000      -0.359187        -9.7740
  41   2.0000      -0.357568        -9.7299
  42   2.0000      -0.354003        -9.6329
  43   2.0000      -0.328561        -8.9406
  44   2.0000      -0.316333        -8.6078
  45   2.0000      -0.310740        -8.4557
  46   2.0000      -0.300742        -8.1836
  47   2.0000      -0.267133        -7.2691
  48   2.0000      -0.264969        -7.2102
  49   2.0000      -0.256719        -6.9857
  50   2.0000      -0.243360        -6.6222
  51   0.0000       0.061832         1.6825
  52   0.0000       0.081746         2.2244
  53   0.0000       0.092141         2.5073
  54   0.0000       0.100652         2.7389
  55   0.0000       0.105558         2.8724

MULLIKEN ATOMIC CHARGES
-----------------------
   0 C :    0.304586
   1 C :   -0.271950
   2 C :   -0.306090
   3 C :   -0.002909
   4 O :   -0.504909
   5 H :    0.140869
   6 H :    0.146586
   7 H :    0.153935
   8 H :    0.144378
   9 H :    0.168872
  10 H :    0.150653
  11 H :    0.144275
  12 C :   -0.001923
  13 H :    0.138944
  14 H :    0.129866
  15 O :   -0.518161
  16 C :    0.060594
  17 C :    0.078062
  18 C :   -0.296883
  19 C :   -0.022944
  20 O :   -0.526961
  21 H :    0.156080
  22 O :   -0.602210
  23 H :    0.155598
  24 H :    0.148085
  25 H :    0.189370
  26 H :    0.146325
  27 H :    0.136298
  28 H :    0.361563
Sum of atomic charges:   -0.0000000

LOEWDIN ATOMIC CHARGES
----------------------
   0 C :    0.180445
   1 C :   -0.228815
   2 C :   -0.216931
   3 C :   -0.025457
   4 O :   -0.304928
   5 H :    0.097117
   6 H :    0.115087
   7 H :    0.119200
   8 H :    0.115776
   9 H :    0.119283
  10 H :    0.107564
  11 H :    0.103842
  12 C :   -0.040462
  13 H :    0.098839
  14 H :    0.095924
  15 O :   -0.334006
  16 C :    0.014595
  17 C :    0.039635
  18 C :   -0.244311
  19 C :   -0.033215
  20 O :   -0.331777
  21 H :    0.116026
  22 O :   -0.417068
  23 H :    0.117941
  24 H :    0.118278
  25 H :    0.137255
  26 H :    0.102996
  27 H :    0.095873
  28 H :    0.281293

  Mayer bond orders larger than 0.100000
B(  0-C ,  1-C ) :   0.9313 B(  0-C ,  4-O ) :   0.9388 B(  0-C ,  5-H ) :   0.9205
B(  0-C , 15-O ) :   0.8224 B(  1-C ,  2-C ) :   0.9518 B(  1-C ,  6-H ) :   0.9337
B(  1-C ,  7-H ) :   0.9311 B(  2-C ,  3-C ) :   0.9560 B(  2-C ,  8-H ) :   0.9445
B(  2-C ,  9-H ) :   0.9385 B(  3-C ,  4-O ) :   0.8344 B(  3-C , 10-H ) :   0.9349
B(  3-C , 11-H ) :   0.9395 B( 12-C , 13-H ) :   0.9104 B( 12-C , 14-H ) :   0.9085
B( 12-C , 15-O ) :   0.8448 B( 12-C , 16-C ) :   0.9077 B( 16-C , 17-C ) :   0.9093
B( 16-C , 20-O ) :   0.8750 B( 16-C , 21-H ) :   0.9218 B( 17-C , 18-C ) :   0.9257
B( 17-C , 22-O ) :   0.8920 B( 17-C , 23-H ) :   0.9346 B( 18-C , 19-C ) :   0.9456
B( 18-C , 24-H ) :   0.9372 B( 18-C , 25-H ) :   0.9144 B( 19-C , 20-O ) :   0.8400
B( 19-C , 26-H ) :   0.9303 B( 19-C , 27-H ) :   0.9367 B( 22-O , 28-H ) :   0.7967

FINAL SINGLE POINT ENERGY      -652.863557236066

DIPOLE MOMENT
-------------
                                X             Y             Z
Electronic contribution:     -3.19425      -2.59641      -1.53260
Nuclear contribution   :      4.08708       3.26314       1.38231
                        -----------------------------------------
Total Dipole Moment    :      0.89283       0.66673      -0.15030
                        -----------------------------------------
Magnitude (a.u.)       :      1.12439
Magnitude (Debye)      :      2.85798

Rotational constants in cm-1:     0.055513     0.014564     0.014160
Rotational constants in MHz :  1664.240384   436.616939   424.509523

                             ****ORCA TERMINATED NORMALLY****
TOTAL RUN TIME: 0 days 1 hours 0 minutes 11 seconds 977 msec
