                         Program Version 4.2.0 -  RELEASE  -
|  1> # Test redundant internal optimization
|  2> #
|  3> ! RKS B3LYP  Opt TightSCF SmallPrint
|  4>
|  5> %basis
|  6>         Basis "6-31G"
|  7> end
|  8>
|  9> %geom
| 10> Constraints
| 11> { D 4  0  15  12  105.0   C } # D for Dihedral angle
| 12> { D 0  15  12  16  165.0   C } # D for Dihedral angle
| 13> { D 0  4  3  2   C } # D for Dihedral angle
| 14> { D 4  3  2  1   C } # D for Dihedral angle
| 15> { D 3  2  1  0   C } # D for Dihedral angle
| 16> { D 2  1  0  4   C } # D for Dihedral angle
| 17> { D 1  0  4  3   C } # D for Dihedral angle
| 18> { D 16  20  19  18   C } # D for Dihedral angle
| 19> { D 20  19  18  17   C } # D for Dihedral angle
| 20> { D 19  18  17  16   C } # D for Dihedral angle
| 21> { D 18  17  16  20   C } # D for Dihedral angle
| 22> { D 17  16  20  19   C } # D for Dihedral angle
| 23> { D 15  12  16  20   C } # D for Dihedral angle
| 24> end
| 25> end
| 26>
| 27>
| 28> #%pal
| 29> #nprocs 8
| 30> #end
| 31>
| 32> * xyz 0 1
| 33> C  -21.048   26.222   46.251
| 34> C  -20.361   27.558   45.944
| 35> C  -20.329   28.222   47.341
| 36> C  -20.110   27.022   48.296
| 37> O  -20.473   25.807   47.535
| 38> H  -20.833   25.428   45.533
| 39> H  -19.344   27.382   45.576
| 40> H  -20.898   28.157   45.201
| 41> H  -19.543   28.978   47.434
| 42> H  -21.289   28.710   47.548
| 43> H  -20.733   27.082   49.195
| 44> H  -19.064   26.913   48.597
| 45> C  -23.085   27.864   46.420
| 46> H  -22.860   28.293   47.405
| 47> H  -22.573   28.467   45.659
| 48> O  -22.586   26.394   46.375
| 49> C  -24.613   27.988   46.171
| 50> C  -25.050   29.456   46.108
| 51> C  -24.628   29.847   44.671
| 52> C  -24.881   28.548   43.865
| 53> O  -24.963   27.450   44.852
| 54> H  -25.146   27.390   46.913
| 55> H  -26.137   29.531   46.226
| 56> O  -24.378   30.340   47.194
| 57> H  -25.194   30.698   44.279
| 58> H  -23.565   30.114   44.650
| 59> H  -24.075   28.332   43.155
| 60> H  -25.832   28.570   43.326
| 61> H  -23.288   30.281   47.095
| 62> *
| 63>
| 64>                          ****END OF INPUT****
 Total Charge           Charge          ....    0
 Multiplicity           Mult            ....    1
 Number of Electrons    NEL             ....  102
FINAL SINGLE POINT ENERGY      -652.807290641541
FINAL SINGLE POINT ENERGY      -652.833223691980
FINAL SINGLE POINT ENERGY      -652.845435358938
FINAL SINGLE POINT ENERGY      -652.847486907468
FINAL SINGLE POINT ENERGY      -652.847882230267
FINAL SINGLE POINT ENERGY      -652.847969757756
FINAL SINGLE POINT ENERGY      -652.847979904711
FINAL SINGLE POINT ENERGY      -652.847970696882
FINAL SINGLE POINT ENERGY      -652.847967424473
                    ***********************HURRAY********************

CARTESIAN COORDINATES (ANGSTROEM)
---------------------------------
  C    -21.163616   26.339221   46.338008
  C    -20.158240   27.442891   45.987506
  C    -19.916245   28.112201   47.369872
  C    -19.998023   26.909215   48.343377
  O    -20.687719   25.827926   47.604269
  H    -21.139085   25.485865   45.659128
  H    -19.240770   26.964958   45.628910
  H    -20.502080   28.136113   45.215467
  H    -18.947522   28.618652   47.422389
  H    -20.690934   28.853847   47.588075
  H    -20.558511   27.134050   49.255684
  H    -19.009595   26.528955   48.617474
  C    -23.045483   28.050403   46.442481
  H    -22.933333   28.470746   47.451785
  H    -22.502703   28.689300   45.731176
  O    -22.565266   26.686636   46.384233
  C    -24.534030   28.004736   46.098007
  C    -25.216350   29.382445   46.073518
  C    -24.870672   29.884952   44.639279
  C    -24.903724   28.584108   43.807390
  O    -24.793291   27.459559   44.770003
  H    -25.015166   27.316630   46.798456
  H    -26.295104   29.252881   46.182619
  O    -24.846228   30.284879   47.145246
  H    -25.578112   30.638514   44.283132
  H    -23.869133   30.336263   44.640697
  H    -24.084224   28.518614   43.083835
  H    -25.851351   28.457831   43.275119
  H    -23.962489   30.671607   46.977864

 Multiplicity           Mult            ....    1
 Number of Electrons    NEL             ....  102
 Basis Dimension        Dim             ....  149

ORBITAL ENERGIES
----------------

  NO   OCC          E(Eh)            E(eV)
   0   2.0000     -19.152958      -521.1785
   1   2.0000     -19.138367      -520.7814
   2   2.0000     -19.137176      -520.7490
   3   2.0000     -19.136086      -520.7194
   4   2.0000     -10.276984      -279.6509
   5   2.0000     -10.247158      -278.8393
   6   2.0000     -10.234238      -278.4878
   7   2.0000     -10.231883      -278.4237
   8   2.0000     -10.230408      -278.3836
   9   2.0000     -10.227039      -278.2919
  10   2.0000     -10.198722      -277.5213
  11   2.0000     -10.195809      -277.4421
  12   2.0000     -10.195343      -277.4294
  13   2.0000      -1.049066       -28.5465
  14   2.0000      -1.035401       -28.1747
  15   2.0000      -1.017050       -27.6753
  16   2.0000      -0.992605       -27.0102
  17   2.0000      -0.790874       -21.5208
  18   2.0000      -0.785204       -21.3665
  19   2.0000      -0.772872       -21.0309
  20   2.0000      -0.732738       -19.9388
  21   2.0000      -0.686174       -18.6718
  22   2.0000      -0.613875       -16.7044
  23   2.0000      -0.605904       -16.4875
  24   2.0000      -0.596564       -16.2333
  25   2.0000      -0.572844       -15.5879
  26   2.0000      -0.528609       -14.3842
  27   2.0000      -0.510019       -13.8783
  28   2.0000      -0.503144       -13.6913
  29   2.0000      -0.496499       -13.5104
  30   2.0000      -0.475036       -12.9264
  31   2.0000      -0.462017       -12.5721
  32   2.0000      -0.443746       -12.0749
  33   2.0000      -0.437752       -11.9118
  34   2.0000      -0.428485       -11.6597
  35   2.0000      -0.420735       -11.4488
  36   2.0000      -0.410088       -11.1591
  37   2.0000      -0.404394       -11.0041
  38   2.0000      -0.384637       -10.4665
  39   2.0000      -0.379958       -10.3392
  40   2.0000      -0.363438        -9.8896
  41   2.0000      -0.355027        -9.6608
  42   2.0000      -0.352549        -9.5933
  43   2.0000      -0.331569        -9.0224
  44   2.0000      -0.317149        -8.6301
  45   2.0000      -0.313429        -8.5288
  46   2.0000      -0.292256        -7.9527
  47   2.0000      -0.273081        -7.4309
  48   2.0000      -0.265119        -7.2143
  49   2.0000      -0.250298        -6.8110
  50   2.0000      -0.240691        -6.5495
  51   0.0000       0.042488         1.1562
  52   0.0000       0.067011         1.8235
  53   0.0000       0.081847         2.2272
  54   0.0000       0.090707         2.4683
  55   0.0000       0.098732         2.6866

MULLIKEN ATOMIC CHARGES
-----------------------
   0 C :    0.312095
   1 C :   -0.298932
   2 C :   -0.307615
   3 C :   -0.004988
   4 O :   -0.495351
   5 H :    0.167667
   6 H :    0.158685
   7 H :    0.144588
   8 H :    0.145156
   9 H :    0.139628
  10 H :    0.147383
  11 H :    0.145158
  12 C :   -0.007016
  13 H :    0.137119
  14 H :    0.111020
  15 O :   -0.513869
  16 C :    0.095422
  17 C :    0.077317
  18 C :   -0.327911
  19 C :   -0.009212
  20 O :   -0.501558
  21 H :    0.173858
  22 H :    0.173109
  23 O :   -0.597686
  24 H :    0.160706
  25 H :    0.128184
  26 H :    0.142937
  27 H :    0.150609
  28 H :    0.353498
Sum of atomic charges:   -0.0000000

LOEWDIN ATOMIC CHARGES
----------------------
   0 C :    0.178595
   1 C :   -0.231678
   2 C :   -0.222122
   3 C :   -0.031472
   4 O :   -0.316848
   5 H :    0.112977
   6 H :    0.124065
   7 H :    0.113829
   8 H :    0.115695
   9 H :    0.105228
  10 H :    0.104621
  11 H :    0.103713
  12 C :   -0.048700
  13 H :    0.096848
  14 H :    0.083246
  15 O :   -0.309798
  16 C :    0.022516
  17 C :    0.034072
  18 C :   -0.242969
  19 C :   -0.030673
  20 O :   -0.309678
  21 H :    0.124634
  22 H :    0.121651
  23 O :   -0.407124
  24 H :    0.123476
  25 H :    0.101114
  26 H :    0.101881
  27 H :    0.106674
  28 H :    0.276228

  Mayer bond orders larger than 0.100000
B(  0-C ,  1-C ) :   0.9291 B(  0-C ,  4-O ) :   0.9048 B(  0-C ,  5-H ) :   0.9327
B(  0-C , 15-O ) :   0.8912 B(  1-C ,  2-C ) :   0.9503 B(  1-C ,  6-H ) :   0.9345
B(  1-C ,  7-H ) :   0.9310 B(  2-C ,  3-C ) :   0.9489 B(  2-C ,  8-H ) :   0.9457
B(  2-C ,  9-H ) :   0.9423 B(  3-C ,  4-O ) :   0.8514 B(  3-C , 10-H ) :   0.9338
B(  3-C , 11-H ) :   0.9388 B( 12-C , 13-H ) :   0.8975 B( 12-C , 14-H ) :   0.9084
B( 12-C , 15-O ) :   0.8522 B( 12-C , 16-C ) :   0.9010 B( 16-C , 17-C ) :   0.8727
B( 16-C , 20-O ) :   0.8734 B( 16-C , 21-H ) :   0.9267 B( 17-C , 18-C ) :   0.9238
B( 17-C , 22-H ) :   0.9321 B( 17-C , 23-O ) :   0.8958 B( 18-C , 19-C ) :   0.9384
B( 18-C , 24-H ) :   0.9412 B( 18-C , 25-H ) :   0.9405 B( 19-C , 20-O ) :   0.8528
B( 19-C , 26-H ) :   0.9316 B( 19-C , 27-H ) :   0.9375 B( 23-O , 28-H ) :   0.7997

FINAL SINGLE POINT ENERGY      -652.847967188692

DIPOLE MOMENT
-------------
                                X             Y             Z
Electronic contribution:     -3.76999      -4.94649       1.21216
Nuclear contribution   :      4.76423       6.73044      -1.91416
                        -----------------------------------------
Total Dipole Moment    :      0.99424       1.78395      -0.70200
                        -----------------------------------------
Magnitude (a.u.)       :      2.15958
Magnitude (Debye)      :      5.48922

Rotational constants in cm-1:     0.050540     0.013535     0.012445
Rotational constants in MHz :  1515.161531   405.778641   373.086666

                             ****ORCA TERMINATED NORMALLY****
TOTAL RUN TIME: 0 days 0 hours 30 minutes 14 seconds 587 msec
