                         Program Version 4.2.0 -  RELEASE  -
|  1> # Test redundant internal optimization
|  2> #
|  3> ! RKS B3LYP  Opt TightSCF SmallPrint
|  4>
|  5> %basis
|  6>         Basis "6-31G"
|  7> end
|  8>
|  9> %geom
| 10> Constraints
| 11> { D 4  0  15  12  135.0   C } # D for Dihedral angle
| 12> { D 0  15  12  16  225.0   C } # D for Dihedral angle
| 13> { D 0  4  3  2   C } # D for Dihedral angle
| 14> { D 4  3  2  1   C } # D for Dihedral angle
| 15> { D 3  2  1  0   C } # D for Dihedral angle
| 16> { D 2  1  0  4   C } # D for Dihedral angle
| 17> { D 1  0  4  3   C } # D for Dihedral angle
| 18> { D 16  20  19  18   C } # D for Dihedral angle
| 19> { D 20  19  18  17   C } # D for Dihedral angle
| 20> { D 19  18  17  16   C } # D for Dihedral angle
| 21> { D 18  17  16  20   C } # D for Dihedral angle
| 22> { D 17  16  20  19   C } # D for Dihedral angle
| 23> { D 15  12  16  20   C } # D for Dihedral angle
| 24> end
| 25> end
| 26>
| 27>
| 28> #%pal
| 29> #nprocs 8
| 30> #end
| 31>
| 32> * xyz 0 1
| 33> C  -21.048   26.222   46.251
| 34> C  -20.361   27.558   45.944
| 35> C  -20.329   28.222   47.341
| 36> C  -20.110   27.022   48.296
| 37> O  -20.473   25.807   47.535
| 38> H  -20.833   25.428   45.533
| 39> H  -19.344   27.382   45.576
| 40> H  -20.898   28.157   45.201
| 41> H  -19.543   28.978   47.434
| 42> H  -21.289   28.710   47.548
| 43> H  -20.733   27.082   49.195
| 44> H  -19.064   26.913   48.597
| 45> C  -23.162   27.680   45.721
| 46> H  -22.341   28.375   45.504
| 47> H  -23.664   27.437   44.775
| 48> O  -22.586   26.394   46.375
| 49> C  -24.191   28.407   46.630
| 50> C  -24.822   29.603   45.909
| 51> C  -25.874   28.908   45.011
| 52> C  -26.354   27.723   45.886
| 53> O  -25.324   27.526   46.928
| 54> H  -23.716   28.653   47.582
| 55> H  -25.309   30.266   46.633
| 56> O  -23.795   30.438   45.096
| 57> H  -26.695   29.575   44.725
| 58> H  -25.402   28.543   44.091
| 59> H  -26.465   26.796   45.311
| 60> H  -27.296   27.937   46.399
| 61> H  -23.295   29.796   44.362
| 62> *
| 63>
| 64>                          ****END OF INPUT****
 Total Charge           Charge          ....    0
 Multiplicity           Mult            ....    1
 Number of Electrons    NEL             ....  102
FINAL SINGLE POINT ENERGY      -652.809499878213
FINAL SINGLE POINT ENERGY      -652.833513502247
FINAL SINGLE POINT ENERGY      -652.842804469591
FINAL SINGLE POINT ENERGY      -652.844838322945
FINAL SINGLE POINT ENERGY      -652.845307253672
FINAL SINGLE POINT ENERGY      -652.845417525746
FINAL SINGLE POINT ENERGY      -652.845429826477
FINAL SINGLE POINT ENERGY      -652.845433095074
                    ***********************HURRAY********************

CARTESIAN COORDINATES (ANGSTROEM)
---------------------------------
  C    -21.087508   26.287992   46.263384
  C    -20.148760   27.460266   45.970633
  C    -20.145724   28.219566   47.324567
  C    -20.245053   27.070533   48.353018
  O    -20.737115   25.892672   47.600990
  H    -20.925708   25.408847   45.635854
  H    -19.154958   27.047772   45.764107
  H    -20.428869   28.082100   45.117384
  H    -19.243626   28.823758   47.459577
  H    -21.010949   28.887771   47.393951
  H    -20.940385   27.283944   49.169115
  H    -19.272343   26.794354   48.770643
  C    -23.098537   27.729242   45.593226
  H    -22.354386   28.501593   45.370944
  H    -23.555624   27.409882   44.644968
  O    -22.519842   26.568329   46.236503
  C    -24.145298   28.347165   46.522973
  C    -24.856846   29.568775   45.918522
  C    -25.971177   28.897591   45.059126
  C    -26.351362   27.661482   45.904651
  O    -25.232934   27.434157   46.853049
  H    -23.656967   28.581201   47.473881
  H    -25.299544   30.165001   46.719397
  O    -23.997895   30.492267   45.201398
  H    -26.815673   29.567633   44.877579
  H    -25.556336   28.603543   44.085453
  H    -26.496062   26.760575   45.300351
  H    -27.250385   27.831303   46.504472
  H    -23.816134   30.158687   44.299287

 Multiplicity           Mult            ....    1
 Number of Electrons    NEL             ....  102
 Basis Dimension        Dim             ....  149

ORBITAL ENERGIES
----------------

  NO   OCC          E(Eh)            E(eV)
   0   2.0000     -19.153761      -521.2003
   1   2.0000     -19.134721      -520.6822
   2   2.0000     -19.134593      -520.6787
   3   2.0000     -19.132799      -520.6299
   4   2.0000     -10.277597      -279.6676
   5   2.0000     -10.247033      -278.8359
   6   2.0000     -10.231588      -278.4157
   7   2.0000     -10.230011      -278.3727
   8   2.0000     -10.229530      -278.3597
   9   2.0000     -10.223407      -278.1930
  10   2.0000     -10.197917      -277.4994
  11   2.0000     -10.192623      -277.3554
  12   2.0000     -10.190921      -277.3091
  13   2.0000      -1.046964       -28.4893
  14   2.0000      -1.035359       -28.1736
  15   2.0000      -1.015743       -27.6398
  16   2.0000      -0.987519       -26.8718
  17   2.0000      -0.788368       -21.4526
  18   2.0000      -0.784155       -21.3379
  19   2.0000      -0.769545       -20.9404
  20   2.0000      -0.731820       -19.9138
  21   2.0000      -0.684074       -18.6146
  22   2.0000      -0.613199       -16.6860
  23   2.0000      -0.604048       -16.4370
  24   2.0000      -0.592723       -16.1288
  25   2.0000      -0.569906       -15.5079
  26   2.0000      -0.524638       -14.2761
  27   2.0000      -0.515375       -14.0241
  28   2.0000      -0.501548       -13.6478
  29   2.0000      -0.499180       -13.5834
  30   2.0000      -0.465624       -12.6703
  31   2.0000      -0.454448       -12.3661
  32   2.0000      -0.447450       -12.1757
  33   2.0000      -0.433869       -11.8062
  34   2.0000      -0.430610       -11.7175
  35   2.0000      -0.421761       -11.4767
  36   2.0000      -0.410515       -11.1707
  37   2.0000      -0.397057       -10.8045
  38   2.0000      -0.379342       -10.3224
  39   2.0000      -0.376187       -10.2366
  40   2.0000      -0.360703        -9.8152
  41   2.0000      -0.356699        -9.7063
  42   2.0000      -0.352408        -9.5895
  43   2.0000      -0.330916        -9.0047
  44   2.0000      -0.318166        -8.6577
  45   2.0000      -0.308702        -8.4002
  46   2.0000      -0.287118        -7.8129
  47   2.0000      -0.273614        -7.4454
  48   2.0000      -0.264738        -7.2039
  49   2.0000      -0.247182        -6.7262
  50   2.0000      -0.234471        -6.3803
  51   0.0000       0.046169         1.2563
  52   0.0000       0.074044         2.0148
  53   0.0000       0.082087         2.2337
  54   0.0000       0.088626         2.4116
  55   0.0000       0.102792         2.7971

MULLIKEN ATOMIC CHARGES
-----------------------
   0 C :    0.318559
   1 C :   -0.303781
   2 C :   -0.307704
   3 C :   -0.000965
   4 O :   -0.492344
   5 H :    0.151821
   6 H :    0.154929
   7 H :    0.142141
   8 H :    0.145424
   9 H :    0.157469
  10 H :    0.153119
  11 H :    0.143111
  12 C :   -0.015561
  13 H :    0.129127
  14 H :    0.123861
  15 O :   -0.514070
  16 C :    0.101779
  17 C :    0.081856
  18 C :   -0.332499
  19 C :   -0.004836
  20 O :   -0.498850
  21 H :    0.157609
  22 H :    0.168544
  23 O :   -0.602372
  24 H :    0.159586
  25 H :    0.132545
  26 H :    0.146828
  27 H :    0.148822
  28 H :    0.355852
Sum of atomic charges:   -0.0000000

LOEWDIN ATOMIC CHARGES
----------------------
   0 C :    0.184899
   1 C :   -0.234185
   2 C :   -0.219648
   3 C :   -0.028271
   4 O :   -0.306834
   5 H :    0.102706
   6 H :    0.121794
   7 H :    0.112341
   8 H :    0.116170
   9 H :    0.112398
  10 H :    0.108308
  11 H :    0.103191
  12 C :   -0.049915
  13 H :    0.097710
  14 H :    0.090935
  15 O :   -0.321981
  16 C :    0.019217
  17 C :    0.032805
  18 C :   -0.242835
  19 C :   -0.028488
  20 O :   -0.308447
  21 H :    0.114973
  22 H :    0.119671
  23 O :   -0.410718
  24 H :    0.122892
  25 H :    0.103232
  26 H :    0.104623
  27 H :    0.105924
  28 H :    0.277533

  Mayer bond orders larger than 0.100000
B(  0-C ,  1-C ) :   0.9305 B(  0-C ,  4-O ) :   0.9244 B(  0-C ,  5-H ) :   0.9287
B(  0-C , 15-O ) :   0.8598 B(  1-C ,  2-C ) :   0.9495 B(  1-C ,  6-H ) :   0.9333
B(  1-C ,  7-H ) :   0.9271 B(  2-C ,  3-C ) :   0.9508 B(  2-C ,  8-H ) :   0.9459
B(  2-C ,  9-H ) :   0.9412 B(  3-C ,  4-O ) :   0.8426 B(  3-C , 10-H ) :   0.9335
B(  3-C , 11-H ) :   0.9394 B( 12-C , 13-H ) :   0.8885 B( 12-C , 14-H ) :   0.9247
B( 12-C , 15-O ) :   0.8561 B( 12-C , 16-C ) :   0.8987 B( 16-C , 17-C ) :   0.8684
B( 16-C , 20-O ) :   0.8747 B( 16-C , 21-H ) :   0.9291 B( 17-C , 18-C ) :   0.9273
B( 17-C , 22-H ) :   0.9325 B( 17-C , 23-O ) :   0.8901 B( 18-C , 19-C ) :   0.9393
B( 18-C , 24-H ) :   0.9409 B( 18-C , 25-H ) :   0.9396 B( 19-C , 20-O ) :   0.8526
B( 19-C , 26-H ) :   0.9311 B( 19-C , 27-H ) :   0.9374 B( 23-O , 28-H ) :   0.7991

FINAL SINGLE POINT ENERGY      -652.845433412100

DIPOLE MOMENT
-------------
                                X             Y             Z
Electronic contribution:     -1.40381      -3.32297       1.70601
Nuclear contribution   :      1.60964       4.40615      -2.97577
                        -----------------------------------------
Total Dipole Moment    :      0.20584       1.08319      -1.26976
                        -----------------------------------------
Magnitude (a.u.)       :      1.68165
Magnitude (Debye)      :      4.27441

Rotational constants in cm-1:     0.051184     0.014063     0.012605
Rotational constants in MHz :  1534.443187   421.587758   377.883207

                             ****ORCA TERMINATED NORMALLY****
TOTAL RUN TIME: 0 days 2 hours 7 minutes 14 seconds 259 msec
