                         Program Version 4.2.0 -  RELEASE  -
|  1> # Test redundant internal optimization
|  2> #
|  3> ! RKS B3LYP  Opt TightSCF SmallPrint
|  4>
|  5> %basis
|  6>         Basis "6-31G"
|  7> end
|  8>
|  9> %geom
| 10> Constraints
| 11> { D 4  0  15  12  195.0   C } # D for Dihedral angle
| 12> { D 0  15  12  16  180.0   C } # D for Dihedral angle
| 13> { D 0  4  3  2   C } # D for Dihedral angle
| 14> { D 4  3  2  1   C } # D for Dihedral angle
| 15> { D 3  2  1  0   C } # D for Dihedral angle
| 16> { D 2  1  0  4   C } # D for Dihedral angle
| 17> { D 1  0  4  3   C } # D for Dihedral angle
| 18> { D 16  20  19  18   C } # D for Dihedral angle
| 19> { D 20  19  18  17   C } # D for Dihedral angle
| 20> { D 19  18  17  16   C } # D for Dihedral angle
| 21> { D 18  17  16  20   C } # D for Dihedral angle
| 22> { D 17  16  20  19   C } # D for Dihedral angle
| 23> { D 15  12  16  20   C } # D for Dihedral angle
| 24> end
| 25> end
| 26>
| 27>
| 28> #%pal
| 29> #nprocs 8
| 30> #end
| 31>
| 32> * xyz 0 1
| 33> C  -21.048   26.222   46.251
| 34> C  -20.361   27.558   45.944
| 35> C  -20.329   28.222   47.341
| 36> C  -20.110   27.022   48.296
| 37> O  -20.473   25.807   47.535
| 38> H  -20.833   25.428   45.533
| 39> H  -19.344   27.382   45.576
| 40> H  -20.898   28.157   45.201
| 41> H  -19.543   28.978   47.434
| 42> H  -21.289   28.710   47.548
| 43> H  -20.733   27.082   49.195
| 44> H  -19.064   26.913   48.597
| 45> C  -23.353   26.472   45.026
| 46> H  -22.979   27.325   44.447
| 47> H  -23.189   25.560   44.438
| 48> O  -22.586   26.394   46.375
| 49> C  -24.885   26.644   45.216
| 50> C  -25.621   26.601   43.872
| 51> C  -25.670   25.080   43.590
| 52> C  -25.842   24.467   45.002
| 53> O  -25.439   25.512   45.966
| 54> H  -25.074   27.543   45.806
| 55> H  -26.632   27.007   43.982
| 56> O  -24.894   27.397   42.753
| 57> H  -26.483   24.801   42.911
| 58> H  -24.727   24.750   43.138
| 59> H  -25.217   23.579   45.152
| 60> H  -26.882   24.209   45.221
| 61> H  -23.878   27.008   42.623
| 62> *
| 63>
| 64>                          ****END OF INPUT****
 Total Charge           Charge          ....    0
 Multiplicity           Mult            ....    1
 Number of Electrons    NEL             ....  102
FINAL SINGLE POINT ENERGY      -652.824195915847
FINAL SINGLE POINT ENERGY      -652.848607494712
FINAL SINGLE POINT ENERGY      -652.853178591130
FINAL SINGLE POINT ENERGY      -652.854041679858
FINAL SINGLE POINT ENERGY      -652.854227947945
FINAL SINGLE POINT ENERGY      -652.854262069808
FINAL SINGLE POINT ENERGY      -652.854268536181
FINAL SINGLE POINT ENERGY      -652.854269444152
                    ***********************HURRAY********************

CARTESIAN COORDINATES (ANGSTROEM)
---------------------------------
  C    -21.053284   26.218777   46.185397
  C    -20.360646   27.557258   45.937969
  C    -20.447177   28.226694   47.331564
  C    -20.294034   27.031842   48.295332
  O    -20.589339   25.821814   47.482253
  H    -20.797806   25.418274   45.481294
  H    -19.316980   27.378334   45.653121
  H    -20.832675   28.152261   45.150837
  H    -19.675407   28.987618   47.480668
  H    -21.427510   28.696427   47.453782
  H    -20.990600   27.062496   49.136348
  H    -19.273091   26.913893   48.670343
  C    -23.168104   26.431635   44.972179
  H    -22.825030   27.296028   44.382713
  H    -22.952319   25.515453   44.396280
  O    -22.499652   26.368419   46.254263
  C    -24.664956   26.587341   45.229259
  C    -25.512629   26.630669   43.947005
  C    -25.696923   25.115146   43.633499
  C    -25.795292   24.487605   45.041092
  O    -25.236010   25.483357   45.990086
  H    -24.805893   27.477964   45.848307
  H    -26.476904   27.093446   44.167918
  O    -24.965745   27.421107   42.862360
  H    -26.579765   24.924596   43.017476
  H    -24.818212   24.743053   43.089393
  H    -25.233801   23.553201   45.132270
  H    -26.831367   24.306732   45.342036
  H    -24.254847   26.928561   42.403958

 Multiplicity           Mult            ....    1
 Number of Electrons    NEL             ....  102
 Basis Dimension        Dim             ....  149

ORBITAL ENERGIES
----------------

  NO   OCC          E(Eh)            E(eV)
   0   2.0000     -19.152465      -521.1651
   1   2.0000     -19.138498      -520.7850
   2   2.0000     -19.137060      -520.7459
   3   2.0000     -19.135388      -520.7004
   4   2.0000     -10.277239      -279.6579
   5   2.0000     -10.246558      -278.8230
   6   2.0000     -10.232688      -278.4456
   7   2.0000     -10.231186      -278.4047
   8   2.0000     -10.229159      -278.3496
   9   2.0000     -10.221680      -278.1460
  10   2.0000     -10.197082      -277.4767
  11   2.0000     -10.185823      -277.1703
  12   2.0000     -10.184239      -277.1272
  13   2.0000      -1.052122       -28.6297
  14   2.0000      -1.034978       -28.1632
  15   2.0000      -1.016006       -27.6469
  16   2.0000      -0.992804       -27.0156
  17   2.0000      -0.785399       -21.3718
  18   2.0000      -0.782876       -21.3031
  19   2.0000      -0.768197       -20.9037
  20   2.0000      -0.729214       -19.8429
  21   2.0000      -0.681351       -18.5405
  22   2.0000      -0.612719       -16.6729
  23   2.0000      -0.598646       -16.2900
  24   2.0000      -0.587882       -15.9971
  25   2.0000      -0.578388       -15.7387
  26   2.0000      -0.528405       -14.3786
  27   2.0000      -0.511050       -13.9064
  28   2.0000      -0.501561       -13.6482
  29   2.0000      -0.489661       -13.3244
  30   2.0000      -0.466205       -12.6861
  31   2.0000      -0.459782       -12.5113
  32   2.0000      -0.450808       -12.2671
  33   2.0000      -0.432723       -11.7750
  34   2.0000      -0.429806       -11.6956
  35   2.0000      -0.419059       -11.4032
  36   2.0000      -0.404842       -11.0163
  37   2.0000      -0.398172       -10.8348
  38   2.0000      -0.378815       -10.3081
  39   2.0000      -0.371528       -10.1098
  40   2.0000      -0.356274        -9.6947
  41   2.0000      -0.355053        -9.6615
  42   2.0000      -0.350547        -9.5389
  43   2.0000      -0.331801        -9.0288
  44   2.0000      -0.316687        -8.6175
  45   2.0000      -0.309073        -8.4103
  46   2.0000      -0.303443        -8.2571
  47   2.0000      -0.272743        -7.4217
  48   2.0000      -0.256612        -6.9828
  49   2.0000      -0.249619        -6.7925
  50   2.0000      -0.240993        -6.5578
  51   0.0000       0.048613         1.3228
  52   0.0000       0.074428         2.0253
  53   0.0000       0.087216         2.3733
  54   0.0000       0.089778         2.4430
  55   0.0000       0.107019         2.9121

MULLIKEN ATOMIC CHARGES
-----------------------
   0 C :    0.305824
   1 C :   -0.275752
   2 C :   -0.297167
   3 C :   -0.001273
   4 O :   -0.502065
   5 H :    0.133089
   6 H :    0.144561
   7 H :    0.142501
   8 H :    0.141293
   9 H :    0.161328
  10 H :    0.157853
  11 H :    0.140184
  12 C :   -0.014680
  13 H :    0.128268
  14 H :    0.113161
  15 O :   -0.497008
  16 C :    0.098114
  17 C :    0.081168
  18 C :   -0.327353
  19 C :   -0.007105
  20 O :   -0.499816
  21 H :    0.163675
  22 H :    0.168749
  23 O :   -0.600101
  24 H :    0.158737
  25 H :    0.132158
  26 H :    0.147870
  27 H :    0.148571
  28 H :    0.355215
Sum of atomic charges:   -0.0000000

LOEWDIN ATOMIC CHARGES
----------------------
   0 C :    0.178957
   1 C :   -0.231571
   2 C :   -0.216434
   3 C :   -0.024708
   4 O :   -0.302440
   5 H :    0.093376
   6 H :    0.113722
   7 H :    0.113002
   8 H :    0.114022
   9 H :    0.118678
  10 H :    0.111316
  11 H :    0.101686
  12 C :   -0.053382
  13 H :    0.092101
  14 H :    0.083916
  15 O :   -0.317026
  16 C :    0.024116
  17 C :    0.034264
  18 C :   -0.241867
  19 C :   -0.028655
  20 O :   -0.308530
  21 H :    0.120186
  22 H :    0.120099
  23 O :   -0.408416
  24 H :    0.122698
  25 H :    0.102703
  26 H :    0.104987
  27 H :    0.105857
  28 H :    0.277342

  Mayer bond orders larger than 0.100000
B(  0-C ,  1-C ) :   0.9284 B(  0-C ,  4-O ) :   0.9394 B(  0-C ,  5-H ) :   0.9193
B(  0-C , 15-O ) :   0.8345 B(  1-C ,  2-C ) :   0.9534 B(  1-C ,  6-H ) :   0.9342
B(  1-C ,  7-H ) :   0.9341 B(  2-C ,  3-C ) :   0.9557 B(  2-C ,  8-H ) :   0.9451
B(  2-C ,  9-H ) :   0.9440 B(  3-C ,  4-O ) :   0.8357 B(  3-C , 10-H ) :   0.9338
B(  3-C , 11-H ) :   0.9398 B( 12-C , 13-H ) :   0.8945 B( 12-C , 14-H ) :   0.9125
B( 12-C , 15-O ) :   0.8526 B( 12-C , 16-C ) :   0.9056 B( 16-C , 17-C ) :   0.8740
B( 16-C , 20-O ) :   0.8782 B( 16-C , 21-H ) :   0.9293 B( 17-C , 18-C ) :   0.9250
B( 17-C , 22-H ) :   0.9331 B( 17-C , 23-O ) :   0.8942 B( 18-C , 19-C ) :   0.9377
B( 18-C , 24-H ) :   0.9419 B( 18-C , 25-H ) :   0.9405 B( 19-C , 20-O ) :   0.8514
B( 19-C , 26-H ) :   0.9311 B( 19-C , 27-H ) :   0.9377 B( 23-O , 28-H ) :   0.7993

FINAL SINGLE POINT ENERGY      -652.854269562462

DIPOLE MOMENT
-------------
                                X             Y             Z
Electronic contribution:     -2.00080      -1.57598       1.59042
Nuclear contribution   :      2.40601       1.73556      -2.80105
                        -----------------------------------------
Total Dipole Moment    :      0.40521       0.15958      -1.21063
                        -----------------------------------------
Magnitude (a.u.)       :      1.28658
Magnitude (Debye)      :      3.27022

Rotational constants in cm-1:     0.056930     0.012303     0.011083
Rotational constants in MHz :  1706.712052   368.847974   332.265698

                             ****ORCA TERMINATED NORMALLY****
TOTAL RUN TIME: 0 days 0 hours 29 minutes 36 seconds 129 msec
