                         Program Version 4.2.0 -  RELEASE  -
|  1> # Test redundant internal optimization
|  2> #
|  3> ! RKS B3LYP  Opt TightSCF SmallPrint
|  4>
|  5> %basis
|  6>         Basis "6-31G"
|  7> end
|  8>
|  9> %geom
| 10> Constraints
| 11> { D 4  0  15  12  15.0   C } # D for Dihedral angle
| 12> { D 0  15  12  16  165.0   C } # D for Dihedral angle
| 13> { D 0  4  3  2   C } # D for Dihedral angle
| 14> { D 4  3  2  1   C } # D for Dihedral angle
| 15> { D 3  2  1  0   C } # D for Dihedral angle
| 16> { D 2  1  0  4   C } # D for Dihedral angle
| 17> { D 1  0  4  3   C } # D for Dihedral angle
| 18> { D 16  20  19  18   C } # D for Dihedral angle
| 19> { D 20  19  18  17   C } # D for Dihedral angle
| 20> { D 19  18  17  16   C } # D for Dihedral angle
| 21> { D 18  17  16  20   C } # D for Dihedral angle
| 22> { D 17  16  20  19   C } # D for Dihedral angle
| 23> { D 15  12  16  20   C } # D for Dihedral angle
| 24> end
| 25> end
| 26>
| 27>
| 28> #%pal
| 29> #nprocs 8
| 30> #end
| 31>
| 32> * xyz 0 1
| 33> C  -21.048   26.222   46.251
| 34> C  -20.361   27.558   45.944
| 35> C  -20.329   28.222   47.341
| 36> C  -20.110   27.022   48.296
| 37> O  -20.473   25.807   47.535
| 38> H  -20.833   25.428   45.533
| 39> H  -19.344   27.382   45.576
| 40> H  -20.898   28.157   45.201
| 41> H  -19.543   28.978   47.434
| 42> H  -21.289   28.710   47.548
| 43> H  -20.733   27.082   49.195
| 44> H  -19.064   26.913   48.597
| 45> C  -23.128   26.462   47.829
| 46> H  -23.107   25.458   48.271
| 47> H  -22.499   27.120   48.443
| 48> O  -22.586   26.394   46.375
| 49> C  -24.584   26.998   47.903
| 50> C  -25.045   27.161   49.356
| 51> C  -24.370   28.496   49.750
| 52> C  -24.426   29.320   48.439
| 53> O  -24.661   28.353   47.346
| 54> H  -25.230   26.364   47.292
| 55> H  -26.136   27.252   49.397
| 56> O  -24.618   25.978   50.267
| 57> H  -24.876   28.999   50.581
| 58> H  -23.330   28.318   50.051
| 59> H  -23.493   29.861   48.244
| 60> H  -25.258   30.029   48.427
| 61> H  -23.528   25.868   50.243
| 62> *
| 63>
| 64>                          ****END OF INPUT****
 Total Charge           Charge          ....    0
 Multiplicity           Mult            ....    1
 Number of Electrons    NEL             ....  102
FINAL SINGLE POINT ENERGY      -652.821270376220
FINAL SINGLE POINT ENERGY      -652.845598328056
FINAL SINGLE POINT ENERGY      -652.850901371883
FINAL SINGLE POINT ENERGY      -652.852391221686
FINAL SINGLE POINT ENERGY      -652.852541194787
FINAL SINGLE POINT ENERGY      -652.852589604448
FINAL SINGLE POINT ENERGY      -652.852593130031
                    ***********************HURRAY********************

CARTESIAN COORDINATES (ANGSTROEM)
---------------------------------
  C    -21.124642   26.269439   46.328263
  C    -20.458902   27.586710   45.921252
  C    -20.122429   28.211396   47.298192
  C    -19.768182   26.979496   48.163045
  O    -20.334344   25.803726   47.447982
  H    -21.066561   25.489956   45.565512
  H    -19.547165   27.370538   45.352322
  H    -21.124026   28.207279   45.317481
  H    -19.297776   28.929004   47.247258
  H    -21.000479   28.734258   47.692289
  H    -20.189747   27.018119   49.172351
  H    -18.689436   26.810983   48.235673
  C    -23.030068   26.447117   47.964066
  H    -23.039198   25.433668   48.384716
  H    -22.402885   27.079942   48.605648
  O    -22.541167   26.427814   46.600532
  C    -24.453633   26.996965   47.908904
  C    -25.136144   27.131472   49.281806
  C    -24.588836   28.504738   49.776503
  C    -24.490755   29.322719   48.471113
  O    -24.513246   28.346176   47.352019
  H    -25.030414   26.370017   47.223004
  H    -26.217839   27.182456   49.142122
  O    -24.942663   26.025631   50.194368
  H    -25.243759   28.965144   50.521325
  H    -23.603027   28.361896   50.238694
  H    -23.574220   29.919161   48.408753
  H    -25.349806   29.986758   48.333240
  H    -24.018650   25.999423   50.516569

 Multiplicity           Mult            ....    1
 Number of Electrons    NEL             ....  102
 Basis Dimension        Dim             ....  149

ORBITAL ENERGIES
----------------

  NO   OCC          E(Eh)            E(eV)
   0   2.0000     -19.149895      -521.0951
   1   2.0000     -19.149878      -521.0947
   2   2.0000     -19.136768      -520.7379
   3   2.0000     -19.134975      -520.6892
   4   2.0000     -10.277325      -279.6602
   5   2.0000     -10.245399      -278.7915
   6   2.0000     -10.234896      -278.5057
   7   2.0000     -10.231693      -278.4185
   8   2.0000     -10.230113      -278.3755
   9   2.0000     -10.229218      -278.3512
  10   2.0000     -10.196206      -277.4529
  11   2.0000     -10.192893      -277.3627
  12   2.0000     -10.183818      -277.1158
  13   2.0000      -1.053947       -28.6794
  14   2.0000      -1.033542       -28.1241
  15   2.0000      -1.015668       -27.6377
  16   2.0000      -0.991717       -26.9860
  17   2.0000      -0.790308       -21.5054
  18   2.0000      -0.782859       -21.3027
  19   2.0000      -0.771222       -20.9860
  20   2.0000      -0.733578       -19.9617
  21   2.0000      -0.680350       -18.5133
  22   2.0000      -0.611574       -16.6418
  23   2.0000      -0.604959       -16.4618
  24   2.0000      -0.594090       -16.1660
  25   2.0000      -0.573374       -15.6023
  26   2.0000      -0.529526       -14.4091
  27   2.0000      -0.510072       -13.8798
  28   2.0000      -0.501533       -13.6474
  29   2.0000      -0.495186       -13.4747
  30   2.0000      -0.470807       -12.8113
  31   2.0000      -0.457398       -12.4464
  32   2.0000      -0.450584       -12.2610
  33   2.0000      -0.433236       -11.7890
  34   2.0000      -0.427389       -11.6298
  35   2.0000      -0.416863       -11.3434
  36   2.0000      -0.405591       -11.0367
  37   2.0000      -0.403094       -10.9687
  38   2.0000      -0.379832       -10.3358
  39   2.0000      -0.372038       -10.1237
  40   2.0000      -0.361038        -9.8243
  41   2.0000      -0.355706        -9.6793
  42   2.0000      -0.348193        -9.4748
  43   2.0000      -0.339392        -9.2353
  44   2.0000      -0.323829        -8.8118
  45   2.0000      -0.313200        -8.5226
  46   2.0000      -0.308824        -8.4035
  47   2.0000      -0.270892        -7.3713
  48   2.0000      -0.263192        -7.1618
  49   2.0000      -0.245466        -6.6795
  50   2.0000      -0.240848        -6.5538
  51   0.0000       0.044354         1.2069
  52   0.0000       0.057367         1.5610
  53   0.0000       0.086971         2.3666
  54   0.0000       0.092721         2.5231
  55   0.0000       0.105111         2.8602

MULLIKEN ATOMIC CHARGES
-----------------------
   0 C :    0.296460
   1 C :   -0.254839
   2 C :   -0.315972
   3 C :   -0.016802
   4 O :   -0.510375
   5 H :    0.161219
   6 H :    0.144057
   7 H :    0.169033
   8 H :    0.147744
   9 H :    0.156224
  10 H :    0.134657
  11 H :    0.152515
  12 C :    0.005848
  13 H :    0.144973
  14 H :    0.109562
  15 O :   -0.529258
  16 C :    0.085252
  17 C :    0.079159
  18 C :   -0.324963
  19 C :   -0.012264
  20 O :   -0.503980
  21 H :    0.170093
  22 H :    0.172755
  23 O :   -0.597024
  24 H :    0.159652
  25 H :    0.129709
  26 H :    0.139055
  27 H :    0.151207
  28 H :    0.356305
Sum of atomic charges:    0.0000000

LOEWDIN ATOMIC CHARGES
----------------------
   0 C :    0.182320
   1 C :   -0.222174
   2 C :   -0.222027
   3 C :   -0.035254
   4 O :   -0.320653
   5 H :    0.108632
   6 H :    0.113846
   7 H :    0.129996
   8 H :    0.117510
   9 H :    0.112501
  10 H :    0.095857
  11 H :    0.107301
  12 C :   -0.042828
  13 H :    0.104151
  14 H :    0.083356
  15 O :   -0.325367
  16 C :    0.019982
  17 C :    0.034668
  18 C :   -0.243669
  19 C :   -0.031897
  20 O :   -0.313277
  21 H :    0.122369
  22 H :    0.121559
  23 O :   -0.405430
  24 H :    0.123156
  25 H :    0.102032
  26 H :    0.098747
  27 H :    0.106538
  28 H :    0.278056

  Mayer bond orders larger than 0.100000
B(  0-C ,  1-C ) :   0.9228 B(  0-C ,  4-O ) :   0.9060 B(  0-C ,  5-H ) :   0.9324
B(  0-C , 15-O ) :   0.8596 B(  1-C ,  2-C ) :   0.9530 B(  1-C ,  6-H ) :   0.9351
B(  1-C ,  7-H ) :   0.9342 B(  2-C ,  3-C ) :   0.9507 B(  2-C ,  8-H ) :   0.9444
B(  2-C ,  9-H ) :   0.9416 B(  3-C ,  4-O ) :   0.8368 B(  3-C , 10-H ) :   0.9310
B(  3-C , 11-H ) :   0.9388 B( 12-C , 13-H ) :   0.9070 B( 12-C , 14-H ) :   0.9098
B( 12-C , 15-O ) :   0.8351 B( 12-C , 16-C ) :   0.9038 B( 16-C , 17-C ) :   0.8756
B( 16-C , 20-O ) :   0.8681 B( 16-C , 21-H ) :   0.9265 B( 17-C , 18-C ) :   0.9202
B( 17-C , 22-H ) :   0.9321 B( 17-C , 23-O ) :   0.9009 B( 18-C , 19-C ) :   0.9385
B( 18-C , 24-H ) :   0.9413 B( 18-C , 25-H ) :   0.9413 B( 19-C , 20-O ) :   0.8538
B( 19-C , 26-H ) :   0.9300 B( 19-C , 27-H ) :   0.9369 B( 23-O , 28-H ) :   0.7973

FINAL SINGLE POINT ENERGY      -652.852593991779

DIPOLE MOMENT
-------------
                                X             Y             Z
Electronic contribution:     -3.23347      -4.82193      -2.24402
Nuclear contribution   :      4.11850       5.94245       3.04381
                        -----------------------------------------
Total Dipole Moment    :      0.88503       1.12052       0.79979
                        -----------------------------------------
Magnitude (a.u.)       :      1.63662
Magnitude (Debye)      :      4.15995

Rotational constants in cm-1:     0.045197     0.015451     0.014495
Rotational constants in MHz :  1354.983201   463.209016   434.544465

                             ****ORCA TERMINATED NORMALLY****
TOTAL RUN TIME: 0 days 0 hours 27 minutes 39 seconds 658 msec
