                         Program Version 4.2.0 -  RELEASE  -
|  1> # Test redundant internal optimization
|  2> #
|  3> ! RKS B3LYP  Opt TightSCF SmallPrint
|  4>
|  5> %basis
|  6>         Basis "6-31G"
|  7> end
|  8>
|  9> %geom
| 10> Constraints
| 11> { D 4  0  15  12  285.0   C } # D for Dihedral angle
| 12> { D 0  15  12  16  225.0   C } # D for Dihedral angle
| 13> { D 0  4  3  2   C } # D for Dihedral angle
| 14> { D 4  3  2  1   C } # D for Dihedral angle
| 15> { D 3  2  1  0   C } # D for Dihedral angle
| 16> { D 2  1  0  4   C } # D for Dihedral angle
| 17> { D 1  0  4  3   C } # D for Dihedral angle
| 18> { D 16  20  19  18   C } # D for Dihedral angle
| 19> { D 20  19  18  17   C } # D for Dihedral angle
| 20> { D 19  18  17  16   C } # D for Dihedral angle
| 21> { D 18  17  16  20   C } # D for Dihedral angle
| 22> { D 17  16  20  19   C } # D for Dihedral angle
| 23> { D 15  12  16  20   C } # D for Dihedral angle
| 24> end
| 25> end
| 26>
| 27>
| 28> #%pal
| 29> #nprocs 8
| 30> #end
| 31>
| 32> * xyz 0 1
| 33> C  -21.048   26.222   46.251
| 34> C  -20.361   27.558   45.944
| 35> C  -20.329   28.222   47.341
| 36> C  -20.110   27.022   48.296
| 37> O  -20.473   25.807   47.535
| 38> H  -20.833   25.428   45.533
| 39> H  -19.344   27.382   45.576
| 40> H  -20.898   28.157   45.201
| 41> H  -19.543   28.978   47.434
| 42> H  -21.289   28.710   47.548
| 43> H  -20.733   27.082   49.195
| 44> H  -19.064   26.913   48.597
| 45> C  -23.396   25.070   46.435
| 46> H  -22.753   24.238   46.121
| 47> H  -23.734   24.873   47.461
| 48> O  -22.586   26.394   46.375
| 49> C  -24.651   25.091   45.519
| 50> C  -24.259   25.193   44.041
| 51> C  -23.861   23.732   43.721
| 52> C  -24.844   22.903   44.585
| 53> O  -25.376   23.820   45.615
| 54> H  -25.330   25.874   45.862
| 55> O  -25.487   25.624   43.193
| 56> H  -23.447   25.905   43.858
| 57> H  -23.939   23.495   42.656
| 58> H  -22.825   23.549   44.031
| 59> H  -24.357   22.055   45.077
| 60> H  -25.697   22.534   44.009
| 61> H  -26.315   24.924   43.360
| 62> *
| 63>
| 64>                          ****END OF INPUT****
 Total Charge           Charge          ....    0
 Multiplicity           Mult            ....    1
 Number of Electrons    NEL             ....  102
FINAL SINGLE POINT ENERGY      -652.839663641956
FINAL SINGLE POINT ENERGY      -652.863274501382
FINAL SINGLE POINT ENERGY      -652.867152446302
FINAL SINGLE POINT ENERGY      -652.867839699305
FINAL SINGLE POINT ENERGY      -652.867931691857
FINAL SINGLE POINT ENERGY      -652.867943658750
FINAL SINGLE POINT ENERGY      -652.867945993051
                    ***********************HURRAY********************

CARTESIAN COORDINATES (ANGSTROEM)
---------------------------------
  C    -21.081180   26.112492   46.252686
  C    -20.501223   27.483778   45.905761
  C    -20.504170   28.186218   47.282907
  C    -20.186864   27.035386   48.263815
  O    -20.472205   25.779689   47.522373
  H    -20.828614   25.293382   45.570962
  H    -19.479668   27.357244   45.529802
  H    -21.096527   28.005825   45.153935
  H    -19.772075   28.997341   47.343412
  H    -21.497354   28.599222   47.480667
  H    -20.802200   27.059212   49.166645
  H    -19.130948   26.996587   48.547532
  C    -23.290970   25.035120   46.477437
  H    -22.667790   24.164215   46.234371
  H    -23.637919   24.920969   47.508570
  O    -22.510809   26.262381   46.353062
  C    -24.493431   25.119577   45.535121
  C    -24.152132   25.209819   44.040736
  C    -23.848155   23.727464   43.698224
  C    -24.842205   22.948251   44.595201
  O    -25.284467   23.889927   45.653260
  H    -25.138412   25.950838   45.833889
  O    -25.285533   25.713450   43.280650
  H    -23.330036   25.891211   43.828911
  H    -24.000309   23.540330   42.632308
  H    -22.809545   23.480489   43.944611
  H    -24.391947   22.069778   45.066821
  H    -25.738277   22.630739   44.052693
  H    -26.107035   25.294064   43.613638

 Multiplicity           Mult            ....    1
 Number of Electrons    NEL             ....  102
 Basis Dimension        Dim             ....  149

ORBITAL ENERGIES
----------------

  NO   OCC          E(Eh)            E(eV)
   0   2.0000     -19.148672      -521.0619
   1   2.0000     -19.145726      -520.9817
   2   2.0000     -19.140431      -520.8376
   3   2.0000     -19.136892      -520.7413
   4   2.0000     -10.282339      -279.7967
   5   2.0000     -10.238318      -278.5988
   6   2.0000     -10.232987      -278.4537
   7   2.0000     -10.232818      -278.4491
   8   2.0000     -10.230256      -278.3794
   9   2.0000     -10.225412      -278.2476
  10   2.0000     -10.189837      -277.2796
  11   2.0000     -10.186662      -277.1932
  12   2.0000     -10.185369      -277.1580
  13   2.0000      -1.056554       -28.7503
  14   2.0000      -1.037194       -28.2235
  15   2.0000      -1.005679       -27.3659
  16   2.0000      -0.996707       -27.1218
  17   2.0000      -0.790852       -21.5202
  18   2.0000      -0.779447       -21.2098
  19   2.0000      -0.767800       -20.8929
  20   2.0000      -0.731021       -19.8921
  21   2.0000      -0.674950       -18.3663
  22   2.0000      -0.604763       -16.4564
  23   2.0000      -0.599766       -16.3205
  24   2.0000      -0.591627       -16.0990
  25   2.0000      -0.585382       -15.9291
  26   2.0000      -0.522960       -14.2305
  27   2.0000      -0.520301       -14.1581
  28   2.0000      -0.496546       -13.5117
  29   2.0000      -0.491938       -13.3863
  30   2.0000      -0.470332       -12.7984
  31   2.0000      -0.458415       -12.4741
  32   2.0000      -0.447269       -12.1708
  33   2.0000      -0.438888       -11.9427
  34   2.0000      -0.427088       -11.6216
  35   2.0000      -0.412903       -11.2356
  36   2.0000      -0.403630       -10.9833
  37   2.0000      -0.393964       -10.7203
  38   2.0000      -0.377072       -10.2606
  39   2.0000      -0.369474       -10.0539
  40   2.0000      -0.357608        -9.7310
  41   2.0000      -0.353272        -9.6130
  42   2.0000      -0.349279        -9.5044
  43   2.0000      -0.337137        -9.1740
  44   2.0000      -0.326390        -8.8815
  45   2.0000      -0.307708        -8.3732
  46   2.0000      -0.302295        -8.2259
  47   2.0000      -0.274948        -7.4817
  48   2.0000      -0.270279        -7.3547
  49   2.0000      -0.256910        -6.9909
  50   2.0000      -0.243346        -6.6218
  51   0.0000       0.064495         1.7550
  52   0.0000       0.067019         1.8237
  53   0.0000       0.095386         2.5956
  54   0.0000       0.097624         2.6565
  55   0.0000       0.104158         2.8343

MULLIKEN ATOMIC CHARGES
-----------------------
   0 C :    0.284111
   1 C :   -0.262050
   2 C :   -0.298734
   3 C :   -0.002982
   4 O :   -0.511962
   5 H :    0.138271
   6 H :    0.145652
   7 H :    0.158031
   8 H :    0.141632
   9 H :    0.164823
  10 H :    0.148679
  11 H :    0.142673
  12 C :    0.001696
  13 H :    0.131419
  14 H :    0.162532
  15 O :   -0.525528
  16 C :    0.056114
  17 C :    0.088228
  18 C :   -0.300094
  19 C :   -0.028803
  20 O :   -0.525786
  21 H :    0.167692
  22 O :   -0.604157
  23 H :    0.164742
  24 H :    0.164458
  25 H :    0.140591
  26 H :    0.147651
  27 H :    0.146808
  28 H :    0.364291
Sum of atomic charges:   -0.0000000

LOEWDIN ATOMIC CHARGES
----------------------
   0 C :    0.170894
   1 C :   -0.215676
   2 C :   -0.215634
   3 C :   -0.027353
   4 O :   -0.330332
   5 H :    0.093120
   6 H :    0.114478
   7 H :    0.124050
   8 H :    0.113785
   9 H :    0.120387
  10 H :    0.106363
  11 H :    0.102761
  12 C :   -0.035161
  13 H :    0.098618
  14 H :    0.115245
  15 O :   -0.328841
  16 C :    0.013017
  17 C :    0.036490
  18 C :   -0.242458
  19 C :   -0.037675
  20 O :   -0.329842
  21 H :    0.118912
  22 O :   -0.414870
  23 H :    0.121123
  24 H :    0.127442
  25 H :    0.110835
  26 H :    0.104750
  27 H :    0.103125
  28 H :    0.282448

  Mayer bond orders larger than 0.100000
B(  0-C ,  1-C ) :   0.9495 B(  0-C ,  4-O ) :   0.9106 B(  0-C ,  5-H ) :   0.9183
B(  0-C , 15-O ) :   0.8594 B(  1-C ,  2-C ) :   0.9571 B(  1-C ,  6-H ) :   0.9398
B(  1-C ,  7-H ) :   0.9357 B(  2-C ,  3-C ) :   0.9550 B(  2-C ,  8-H ) :   0.9451
B(  2-C ,  9-H ) :   0.9440 B(  3-C ,  4-O ) :   0.8366 B(  3-C , 10-H ) :   0.9356
B(  3-C , 11-H ) :   0.9404 B( 12-C , 13-H ) :   0.9213 B( 12-C , 14-H ) :   0.9253
B( 12-C , 15-O ) :   0.8163 B( 12-C , 16-C ) :   0.9015 B( 16-C , 17-C ) :   0.9104
B( 16-C , 20-O ) :   0.8425 B( 16-C , 21-H ) :   0.9242 B( 17-C , 18-C ) :   0.9118
B( 17-C , 22-O ) :   0.8910 B( 17-C , 23-H ) :   0.9261 B( 18-C , 19-C ) :   0.9406
B( 18-C , 24-H ) :   0.9377 B( 18-C , 25-H ) :   0.9350 B( 19-C , 20-O ) :   0.8433
B( 19-C , 26-H ) :   0.9355 B( 19-C , 27-H ) :   0.9382 B( 22-O , 28-H ) :   0.7950

FINAL SINGLE POINT ENERGY      -652.867946205125

DIPOLE MOMENT
-------------
                                X             Y             Z
Electronic contribution:     -3.84292      -1.16869       0.32150
Nuclear contribution   :      4.51611       1.07345      -0.47013
                        -----------------------------------------
Total Dipole Moment    :      0.67319      -0.09525      -0.14863
                        -----------------------------------------
Magnitude (a.u.)       :      0.69595
Magnitude (Debye)      :      1.76897

Rotational constants in cm-1:     0.060184     0.012278     0.011494
Rotational constants in MHz :  1804.284006   368.082057   344.583011

                             ****ORCA TERMINATED NORMALLY****
TOTAL RUN TIME: 0 days 0 hours 23 minutes 35 seconds 843 msec
