                         Program Version 4.2.0 -  RELEASE  -
|  1> # Test redundant internal optimization
|  2> #
|  3> ! RKS B3LYP  Opt TightSCF SmallPrint
|  4>
|  5> %basis
|  6>         Basis "6-31G"
|  7> end
|  8>
|  9> %geom
| 10> Constraints
| 11> { D 4  0  15  12  120.0   C } # D for Dihedral angle
| 12> { D 0  15  12  16  150.0   C } # D for Dihedral angle
| 13> { D 0  4  3  2   C } # D for Dihedral angle
| 14> { D 4  3  2  1   C } # D for Dihedral angle
| 15> { D 3  2  1  0   C } # D for Dihedral angle
| 16> { D 2  1  0  4   C } # D for Dihedral angle
| 17> { D 1  0  4  3   C } # D for Dihedral angle
| 18> { D 16  20  19  18   C } # D for Dihedral angle
| 19> { D 20  19  18  17   C } # D for Dihedral angle
| 20> { D 19  18  17  16   C } # D for Dihedral angle
| 21> { D 18  17  16  20   C } # D for Dihedral angle
| 22> { D 17  16  20  19   C } # D for Dihedral angle
| 23> { D 15  12  16  20   C } # D for Dihedral angle
| 24> end
| 25> end
| 26>
| 27>
| 28> #%pal
| 29> #nprocs 8
| 30> #end
| 31>
| 32> * xyz 0 1
| 33> C  -21.048   26.222   46.251
| 34> C  -20.361   27.558   45.944
| 35> C  -20.329   28.222   47.341
| 36> C  -20.110   27.022   48.296
| 37> O  -20.473   25.807   47.535
| 38> H  -20.833   25.428   45.533
| 39> H  -19.344   27.382   45.576
| 40> H  -20.898   28.157   45.201
| 41> H  -19.543   28.978   47.434
| 42> H  -21.289   28.710   47.548
| 43> H  -20.733   27.082   49.195
| 44> H  -19.064   26.913   48.597
| 45> C  -23.119   27.818   46.058
| 46> H  -23.125   28.416   46.978
| 47> H  -22.468   28.318   45.329
| 48> O  -22.586   26.394   46.375
| 49> C  -24.559   27.804   45.475
| 50> C  -25.008   29.212   45.066
| 51> C  -24.293   29.386   43.706
| 52> C  -24.331   27.960   43.103
| 53> O  -24.599   27.036   44.226
| 54> H  -25.226   27.304   46.180
| 55> O  -26.550   29.248   44.884
| 56> H  -24.728   29.981   45.795
| 57> H  -24.781   30.125   43.061
| 58> H  -23.258   29.712   43.863
| 59> H  -23.385   27.680   42.627
| 60> H  -25.142   27.833   42.380
| 61> H  -26.853   28.486   44.158
| 62> *
| 63>
| 64>                          ****END OF INPUT****
 Total Charge           Charge          ....    0
 Multiplicity           Mult            ....    1
 Number of Electrons    NEL             ....  102
FINAL SINGLE POINT ENERGY      -652.815525035960
FINAL SINGLE POINT ENERGY      -652.839751587514
FINAL SINGLE POINT ENERGY      -652.848516769055
FINAL SINGLE POINT ENERGY      -652.850660255417
FINAL SINGLE POINT ENERGY      -652.851007411986
FINAL SINGLE POINT ENERGY      -652.851054666462
FINAL SINGLE POINT ENERGY      -652.851060857488
                    ***********************HURRAY********************

CARTESIAN COORDINATES (ANGSTROEM)
---------------------------------
  C    -21.162446   26.351163   46.284207
  C    -20.165786   27.480626   46.006730
  C    -20.045985   28.156474   47.399829
  C    -20.166474   26.954836   48.367388
  O    -20.769586   25.854793   47.580620
  H    -21.082552   25.499383   45.607401
  H    -19.211874   27.024801   45.720161
  H    -20.458869   28.166424   45.208468
  H    -19.100987   28.694480   47.521157
  H    -20.860593   28.872439   47.555294
  H    -20.801642   27.163588   49.232834
  H    -19.192354   26.599213   48.715487
  C    -23.091396   28.014940   46.020567
  H    -23.189460   28.594675   46.950993
  H    -22.440550   28.573073   45.335925
  O    -22.572891   26.693411   46.291239
  C    -24.474633   27.835976   45.394329
  C    -25.165490   29.150168   44.999721
  C    -24.527881   29.438799   43.615524
  C    -24.345263   28.023675   43.013398
  O    -24.422601   27.070649   44.146811
  H    -25.091332   27.251606   46.083380
  O    -26.604293   28.971296   44.901764
  H    -25.023913   29.960507   45.716917
  H    -25.182159   30.077917   43.017002
  H    -23.566390   29.950516   43.737606
  H    -23.383342   27.899275   42.505753
  H    -25.143884   27.758979   42.313169
  H    -26.791372   28.110317   44.471325

 Multiplicity           Mult            ....    1
 Number of Electrons    NEL             ....  102
 Basis Dimension        Dim             ....  149

ORBITAL ENERGIES
----------------

  NO   OCC          E(Eh)            E(eV)
   0   2.0000     -19.142189      -520.8854
   1   2.0000     -19.140259      -520.8329
   2   2.0000     -19.137072      -520.7462
   3   2.0000     -19.136852      -520.7402
   4   2.0000     -10.278909      -279.7033
   5   2.0000     -10.245432      -278.7924
   6   2.0000     -10.237636      -278.5802
   7   2.0000     -10.234616      -278.4981
   8   2.0000     -10.232553      -278.4419
   9   2.0000     -10.227007      -278.2910
  10   2.0000     -10.195900      -277.4445
  11   2.0000     -10.195534      -277.4346
  12   2.0000     -10.192886      -277.3625
  13   2.0000      -1.050039       -28.5730
  14   2.0000      -1.037258       -28.2252
  15   2.0000      -1.007911       -27.4266
  16   2.0000      -0.991703       -26.9856
  17   2.0000      -0.791773       -21.5452
  18   2.0000      -0.787433       -21.4271
  19   2.0000      -0.772039       -21.0083
  20   2.0000      -0.733955       -19.9719
  21   2.0000      -0.681399       -18.5418
  22   2.0000      -0.607937       -16.5428
  23   2.0000      -0.605003       -16.4630
  24   2.0000      -0.598265       -16.2796
  25   2.0000      -0.577717       -15.7205
  26   2.0000      -0.528821       -14.3899
  27   2.0000      -0.508612       -13.8400
  28   2.0000      -0.502374       -13.6703
  29   2.0000      -0.493131       -13.4188
  30   2.0000      -0.482134       -13.1195
  31   2.0000      -0.462627       -12.5887
  32   2.0000      -0.452297       -12.3076
  33   2.0000      -0.442169       -12.0320
  34   2.0000      -0.429543       -11.6884
  35   2.0000      -0.411558       -11.1991
  36   2.0000      -0.406697       -11.0668
  37   2.0000      -0.395931       -10.7738
  38   2.0000      -0.384151       -10.4533
  39   2.0000      -0.374652       -10.1948
  40   2.0000      -0.366757        -9.9800
  41   2.0000      -0.359695        -9.7878
  42   2.0000      -0.353822        -9.6280
  43   2.0000      -0.332838        -9.0570
  44   2.0000      -0.313962        -8.5433
  45   2.0000      -0.307942        -8.3795
  46   2.0000      -0.292497        -7.9593
  47   2.0000      -0.273018        -7.4292
  48   2.0000      -0.264463        -7.1964
  49   2.0000      -0.253728        -6.9043
  50   2.0000      -0.241379        -6.5682
  51   0.0000       0.058051         1.5797
  52   0.0000       0.075074         2.0429
  53   0.0000       0.080514         2.1909
  54   0.0000       0.096341         2.6216
  55   0.0000       0.101904         2.7730

MULLIKEN ATOMIC CHARGES
-----------------------
   0 C :    0.318515
   1 C :   -0.302567
   2 C :   -0.308290
   3 C :   -0.001999
   4 O :   -0.494017
   5 H :    0.164988
   6 H :    0.157574
   7 H :    0.144772
   8 H :    0.145770
   9 H :    0.147465
  10 H :    0.148529
  11 H :    0.144436
  12 C :    0.003346
  13 H :    0.131555
  14 H :    0.119823
  15 O :   -0.518838
  16 C :    0.070911
  17 C :    0.075382
  18 C :   -0.300627
  19 C :   -0.028597
  20 O :   -0.509166
  21 H :    0.175832
  22 O :   -0.601556
  23 H :    0.150309
  24 H :    0.166028
  25 H :    0.140073
  26 H :    0.144104
  27 H :    0.148660
  28 H :    0.367587
Sum of atomic charges:   -0.0000000

LOEWDIN ATOMIC CHARGES
----------------------
   0 C :    0.183743
   1 C :   -0.232556
   2 C :   -0.220934
   3 C :   -0.029842
   4 O :   -0.312684
   5 H :    0.111047
   6 H :    0.123381
   7 H :    0.113323
   8 H :    0.116246
   9 H :    0.108653
  10 H :    0.105658
  11 H :    0.103658
  12 C :   -0.039024
  13 H :    0.094939
  14 H :    0.089656
  15 O :   -0.319848
  16 C :    0.017372
  17 C :    0.034641
  18 C :   -0.243680
  19 C :   -0.038811
  20 O :   -0.319206
  21 H :    0.123779
  22 O :   -0.413572
  23 H :    0.114388
  24 H :    0.127950
  25 H :    0.110288
  26 H :    0.102811
  27 H :    0.103664
  28 H :    0.284960

  Mayer bond orders larger than 0.100000
B(  0-C ,  1-C ) :   0.9325 B(  0-C ,  4-O ) :   0.9138 B(  0-C ,  5-H ) :   0.9300
B(  0-C , 15-O ) :   0.8701 B(  1-C ,  2-C ) :   0.9493 B(  1-C ,  6-H ) :   0.9338
B(  1-C ,  7-H ) :   0.9278 B(  2-C ,  3-C ) :   0.9502 B(  2-C ,  8-H ) :   0.9457
B(  2-C ,  9-H ) :   0.9430 B(  3-C ,  4-O ) :   0.8482 B(  3-C , 10-H ) :   0.9341
B(  3-C , 11-H ) :   0.9392 B( 12-C , 13-H ) :   0.9081 B( 12-C , 14-H ) :   0.9067
B( 12-C , 15-O ) :   0.8532 B( 12-C , 16-C ) :   0.8927 B( 16-C , 17-C ) :   0.8976
B( 16-C , 20-O ) :   0.8656 B( 16-C , 21-H ) :   0.9222 B( 17-C , 18-C ) :   0.9112
B( 17-C , 22-O ) :   0.8958 B( 17-C , 23-H ) :   0.9330 B( 18-C , 19-C ) :   0.9394
B( 18-C , 24-H ) :   0.9365 B( 18-C , 25-H ) :   0.9339 B( 19-C , 20-O ) :   0.8535
B( 19-C , 26-H ) :   0.9346 B( 19-C , 27-H ) :   0.9374 B( 22-O , 28-H ) :   0.7925

FINAL SINGLE POINT ENERGY      -652.851061791414

DIPOLE MOMENT
-------------
                                X             Y             Z
Electronic contribution:     -4.57568      -5.32863       0.69383
Nuclear contribution   :      5.70597       6.77205      -1.25410
                        -----------------------------------------
Total Dipole Moment    :      1.13028       1.44342      -0.56027
                        -----------------------------------------
Magnitude (a.u.)       :      1.91700
Magnitude (Debye)      :      4.87264

Rotational constants in cm-1:     0.062244     0.011856     0.011743
Rotational constants in MHz :  1866.014926   355.437090   352.058295

                             ****ORCA TERMINATED NORMALLY****
TOTAL RUN TIME: 0 days 0 hours 23 minutes 41 seconds 910 msec
