                         Program Version 4.2.0 -  RELEASE  -
|  1> # Test redundant internal optimization
|  2> #
|  3> ! RKS B3LYP  Opt TightSCF SmallPrint
|  4>
|  5> %basis
|  6>         Basis "6-31G"
|  7> end
|  8>
|  9> %geom
| 10> Constraints
| 11> { D 4  0  15  12  15.0   C } # D for Dihedral angle
| 12> { D 0  15  12  16  300.0   C } # D for Dihedral angle
| 13> { D 0  4  3  2   C } # D for Dihedral angle
| 14> { D 4  3  2  1   C } # D for Dihedral angle
| 15> { D 3  2  1  0   C } # D for Dihedral angle
| 16> { D 2  1  0  4   C } # D for Dihedral angle
| 17> { D 1  0  4  3   C } # D for Dihedral angle
| 18> { D 16  20  19  18   C } # D for Dihedral angle
| 19> { D 20  19  18  17   C } # D for Dihedral angle
| 20> { D 19  18  17  16   C } # D for Dihedral angle
| 21> { D 18  17  16  20   C } # D for Dihedral angle
| 22> { D 17  16  20  19   C } # D for Dihedral angle
| 23> { D 15  12  16  20   C } # D for Dihedral angle
| 24> end
| 25> end
| 26>
| 27>
| 28> #%pal
| 29> #nprocs 8
| 30> #end
| 31>
| 32> * xyz 0 1
| 33> C  -21.048   26.222   46.251
| 34> C  -20.361   27.558   45.944
| 35> C  -20.329   28.222   47.341
| 36> C  -20.110   27.022   48.296
| 37> O  -20.473   25.807   47.535
| 38> H  -20.833   25.428   45.533
| 39> H  -19.344   27.382   45.576
| 40> H  -20.898   28.157   45.201
| 41> H  -19.543   28.978   47.434
| 42> H  -21.289   28.710   47.548
| 43> H  -20.733   27.082   49.195
| 44> H  -19.064   26.913   48.597
| 45> C  -23.128   26.462   47.829
| 46> H  -22.680   27.322   48.342
| 47> H  -24.218   26.594   47.827
| 48> O  -22.586   26.394   46.375
| 49> C  -22.808   25.182   48.650
| 50> C  -23.455   25.235   50.038
| 51> C  -24.919   24.850   49.717
| 52> C  -24.767   23.819   48.570
| 53> O  -23.409   24.004   48.016
| 54> H  -21.727   25.025   48.660
| 55> O  -22.802   24.179   50.971
| 56> H  -23.370   26.217   50.515
| 57> H  -25.449   24.437   50.581
| 58> H  -25.473   25.731   49.373
| 59> H  -25.503   23.969   47.772
| 60> H  -24.834   22.787   48.925
| 61> H  -22.877   23.187   50.513
| 62> *
| 63>
| 64>                          ****END OF INPUT****
 Total Charge           Charge          ....    0
 Multiplicity           Mult            ....    1
 Number of Electrons    NEL             ....  102
FINAL SINGLE POINT ENERGY      -652.820054550205
FINAL SINGLE POINT ENERGY      -652.843055821276
FINAL SINGLE POINT ENERGY      -652.852386823197
FINAL SINGLE POINT ENERGY      -652.854598210398
FINAL SINGLE POINT ENERGY      -652.854950933574
FINAL SINGLE POINT ENERGY      -652.854996721838
FINAL SINGLE POINT ENERGY      -652.855002674955
                    ***********************HURRAY********************

CARTESIAN COORDINATES (ANGSTROEM)
---------------------------------
  C    -21.071644   26.277986   46.334008
  C    -20.453964   27.625978   45.950181
  C    -20.178634   28.257528   47.339217
  C    -19.792548   27.036797   48.205467
  O    -20.290175   25.841580   47.469190
  H    -20.967858   25.501992   45.574274
  H    -19.518112   27.454298   45.405447
  H    -21.126821   28.219294   45.327921
  H    -19.384027   29.009454   47.311353
  H    -21.084768   28.740327   47.720011
  H    -20.242381   27.048949   49.202714
  H    -18.710470   26.912126   48.304250
  C    -23.124195   26.410615   47.859850
  H    -22.801962   27.296086   48.432990
  H    -24.187247   26.526005   47.631741
  O    -22.507849   26.395222   46.546689
  C    -22.888043   25.162895   48.725498
  C    -23.630750   25.220431   50.068880
  C    -25.060926   24.773669   49.659577
  C    -24.792026   23.726067   48.549630
  O    -23.404305   23.950435   48.082196
  H    -21.818535   25.002724   48.856615
  O    -23.034257   24.304411   51.028461
  H    -23.607277   26.198687   50.552224
  H    -25.596526   24.360397   50.518003
  H    -25.631388   25.627785   49.277028
  H    -25.475322   23.824275   47.700134
  H    -24.845771   22.698788   48.923376
  H    -22.802220   23.470197   50.568076

 Multiplicity           Mult            ....    1
 Number of Electrons    NEL             ....  102
 Basis Dimension        Dim             ....  149

ORBITAL ENERGIES
----------------

  NO   OCC          E(Eh)            E(eV)
   0   2.0000     -19.151855      -521.1485
   1   2.0000     -19.135694      -520.7087
   2   2.0000     -19.135651      -520.7075
   3   2.0000     -19.135057      -520.6914
   4   2.0000     -10.278571      -279.6941
   5   2.0000     -10.239659      -278.6353
   6   2.0000     -10.234589      -278.4973
   7   2.0000     -10.233076      -278.4561
   8   2.0000     -10.225564      -278.2517
   9   2.0000     -10.223450      -278.1942
  10   2.0000     -10.193940      -277.3912
  11   2.0000     -10.186747      -277.1955
  12   2.0000     -10.186252      -277.1820
  13   2.0000      -1.053779       -28.6748
  14   2.0000      -1.031168       -28.0595
  15   2.0000      -1.002147       -27.2698
  16   2.0000      -0.991523       -26.9807
  17   2.0000      -0.792079       -21.5536
  18   2.0000      -0.780640       -21.2423
  19   2.0000      -0.764789       -20.8110
  20   2.0000      -0.734759       -19.9938
  21   2.0000      -0.673631       -18.3304
  22   2.0000      -0.605504       -16.4766
  23   2.0000      -0.602850       -16.4044
  24   2.0000      -0.599265       -16.3068
  25   2.0000      -0.570012       -15.5108
  26   2.0000      -0.516601       -14.0574
  27   2.0000      -0.515909       -14.0386
  28   2.0000      -0.500447       -13.6179
  29   2.0000      -0.487484       -13.2651
  30   2.0000      -0.470211       -12.7951
  31   2.0000      -0.461650       -12.5621
  32   2.0000      -0.446961       -12.1624
  33   2.0000      -0.441215       -12.0061
  34   2.0000      -0.418881       -11.3983
  35   2.0000      -0.411430       -11.1956
  36   2.0000      -0.400278       -10.8921
  37   2.0000      -0.389498       -10.5988
  38   2.0000      -0.375937       -10.2298
  39   2.0000      -0.371371       -10.1055
  40   2.0000      -0.362371        -9.8606
  41   2.0000      -0.360933        -9.8215
  42   2.0000      -0.350328        -9.5329
  43   2.0000      -0.335719        -9.1354
  44   2.0000      -0.322042        -8.7632
  45   2.0000      -0.312247        -8.4967
  46   2.0000      -0.298577        -8.1247
  47   2.0000      -0.268297        -7.3007
  48   2.0000      -0.261809        -7.1242
  49   2.0000      -0.254051        -6.9131
  50   2.0000      -0.231757        -6.3064
  51   0.0000       0.063483         1.7275
  52   0.0000       0.077412         2.1065
  53   0.0000       0.088867         2.4182
  54   0.0000       0.095951         2.6110
  55   0.0000       0.099641         2.7114

MULLIKEN ATOMIC CHARGES
-----------------------
   0 C :    0.305716
   1 C :   -0.259863
   2 C :   -0.313367
   3 C :   -0.022400
   4 O :   -0.510440
   5 H :    0.168904
   6 H :    0.146591
   7 H :    0.160027
   8 H :    0.149656
   9 H :    0.153164
  10 H :    0.145439
  11 H :    0.155744
  12 C :    0.003437
  13 H :    0.111376
  14 H :    0.153284
  15 O :   -0.530606
  16 C :    0.036413
  17 C :    0.077343
  18 C :   -0.299983
  19 C :   -0.025217
  20 O :   -0.513899
  21 H :    0.205419
  22 O :   -0.605495
  23 H :    0.145131
  24 H :    0.162969
  25 H :    0.141481
  26 H :    0.148635
  27 H :    0.143201
  28 H :    0.367338
Sum of atomic charges:   -0.0000000

LOEWDIN ATOMIC CHARGES
----------------------
   0 C :    0.184642
   1 C :   -0.222374
   2 C :   -0.220941
   3 C :   -0.035657
   4 O :   -0.315595
   5 H :    0.113332
   6 H :    0.114803
   7 H :    0.125123
   8 H :    0.118261
   9 H :    0.111704
  10 H :    0.102031
  11 H :    0.109221
  12 C :   -0.035477
  13 H :    0.084573
  14 H :    0.114370
  15 O :   -0.329158
  16 C :   -0.005327
  17 C :    0.034033
  18 C :   -0.242905
  19 C :   -0.038521
  20 O :   -0.323524
  21 H :    0.133651
  22 O :   -0.416487
  23 H :    0.111393
  24 H :    0.126403
  25 H :    0.111108
  26 H :    0.105133
  27 H :    0.101458
  28 H :    0.284728

  Mayer bond orders larger than 0.100000
B(  0-C ,  1-C ) :   0.9242 B(  0-C ,  4-O ) :   0.8957 B(  0-C ,  5-H ) :   0.9316
B(  0-C , 15-O ) :   0.8563 B(  1-C ,  2-C ) :   0.9533 B(  1-C ,  6-H ) :   0.9349
B(  1-C ,  7-H ) :   0.9369 B(  2-C ,  3-C ) :   0.9516 B(  2-C ,  8-H ) :   0.9443
B(  2-C ,  9-H ) :   0.9438 B(  3-C ,  4-O ) :   0.8306 B(  3-C , 10-H ) :   0.9310
B(  3-C , 11-H ) :   0.9393 B( 12-C , 13-H ) :   0.9059 B( 12-C , 14-H ) :   0.9397
B( 12-C , 15-O ) :   0.8569 B( 12-C , 16-C ) :   0.8790 B( 16-C , 17-C ) :   0.8944
B( 16-C , 20-O ) :   0.8543 B( 16-C , 21-H ) :   0.8980 B( 17-C , 18-C ) :   0.9110
B( 17-C , 22-O ) :   0.8914 B( 17-C , 23-H ) :   0.9335 B( 18-C , 19-C ) :   0.9401
B( 18-C , 24-H ) :   0.9373 B( 18-C , 25-H ) :   0.9338 B( 19-C , 20-O ) :   0.8540
B( 19-C , 26-H ) :   0.9336 B( 19-C , 27-H ) :   0.9383 B( 22-O , 28-H ) :   0.7926

FINAL SINGLE POINT ENERGY      -652.855003574015

DIPOLE MOMENT
-------------
                                X             Y             Z
Electronic contribution:      0.44697      -4.54256      -0.72776
Nuclear contribution   :     -0.53023       5.59085       0.74279
                        -----------------------------------------
Total Dipole Moment    :     -0.08326       1.04830       0.01504
                        -----------------------------------------
Magnitude (a.u.)       :      1.05170
Magnitude (Debye)      :      2.67322

Rotational constants in cm-1:     0.054573     0.014965     0.013603
Rotational constants in MHz :  1636.065638   448.626304   407.812846

                             ****ORCA TERMINATED NORMALLY****
TOTAL RUN TIME: 0 days 0 hours 24 minutes 15 seconds 588 msec
