                         Program Version 4.2.0 -  RELEASE  -
|  1> # Test redundant internal optimization
|  2> #
|  3> ! RKS B3LYP  Opt TightSCF SmallPrint
|  4>
|  5> %basis
|  6>         Basis "6-31G"
|  7> end
|  8>
|  9> %geom
| 10> Constraints
| 11> { D 4  0  15  12  45.0   C } # D for Dihedral angle
| 12> { D 0  15  12  16  240.0   C } # D for Dihedral angle
| 13> { D 0  4  3  2   C } # D for Dihedral angle
| 14> { D 4  3  2  1   C } # D for Dihedral angle
| 15> { D 3  2  1  0   C } # D for Dihedral angle
| 16> { D 2  1  0  4   C } # D for Dihedral angle
| 17> { D 1  0  4  3   C } # D for Dihedral angle
| 18> { D 16  20  19  18   C } # D for Dihedral angle
| 19> { D 20  19  18  17   C } # D for Dihedral angle
| 20> { D 19  18  17  16   C } # D for Dihedral angle
| 21> { D 18  17  16  20   C } # D for Dihedral angle
| 22> { D 17  16  20  19   C } # D for Dihedral angle
| 23> { D 15  12  16  20   C } # D for Dihedral angle
| 24> end
| 25> end
| 26>
| 27>
| 28> #%pal
| 29> #nprocs 8
| 30> #end
| 31>
| 32> * xyz 0 1
| 33> C  -21.048   26.222   46.251
| 34> C  -20.361   27.558   45.944
| 35> C  -20.329   28.222   47.341
| 36> C  -20.110   27.022   48.296
| 37> O  -20.473   25.807   47.535
| 38> H  -20.833   25.428   45.533
| 39> H  -19.344   27.382   45.576
| 40> H  -20.898   28.157   45.201
| 41> H  -19.543   28.978   47.434
| 42> H  -21.289   28.710   47.548
| 43> H  -20.733   27.082   49.195
| 44> H  -19.064   26.913   48.597
| 45> C  -23.065   27.161   47.638
| 46> H  -22.193   27.462   48.231
| 47> H  -23.613   28.068   47.351
| 48> O  -22.586   26.394   46.375
| 49> C  -24.000   26.309   48.540
| 50> C  -23.259   25.103   49.126
| 51> C  -22.473   25.752   50.290
| 52> C  -23.441   26.851   50.797
| 53> O  -24.421   27.080   49.714
| 54> H  -24.904   26.058   47.982
| 55> O  -24.279   24.063   49.666
| 56> H  -22.608   24.602   48.401
| 57> H  -22.207   25.037   51.074
| 58> H  -21.545   26.198   49.914
| 59> H  -22.927   27.792   51.020
| 60> H  -24.003   26.537   51.680
| 61> H  -24.942   24.541   50.396
| 62> *
| 63>
| 64>                          ****END OF INPUT****
 Total Charge           Charge          ....    0
 Multiplicity           Mult            ....    1
 Number of Electrons    NEL             ....  102
FINAL SINGLE POINT ENERGY      -652.809726408469
FINAL SINGLE POINT ENERGY      -652.840297451001
FINAL SINGLE POINT ENERGY      -652.856728478547
FINAL SINGLE POINT ENERGY      -652.859161345509
FINAL SINGLE POINT ENERGY      -652.859544829172
FINAL SINGLE POINT ENERGY      -652.859613583977
FINAL SINGLE POINT ENERGY      -652.859622063108
FINAL SINGLE POINT ENERGY      -652.859611952772
                    ***********************HURRAY********************

CARTESIAN COORDINATES (ANGSTROEM)
---------------------------------
  C    -21.148195   26.319775   46.417666
  C    -20.397934   27.530633   45.844592
  C    -20.019483   28.313674   47.134088
  C    -19.744640   27.181427   48.154001
  O    -20.385033   25.959585   47.596151
  H    -21.108816   25.452154   45.756930
  H    -19.500369   27.176348   45.326656
  H    -21.009925   28.106146   45.146528
  H    -19.142445   28.952938   46.993141
  H    -20.846845   28.954950   47.453244
  H    -20.157422   27.382164   49.146997
  H    -18.678290   26.958253   48.252180
  C    -23.120059   27.211748   47.758626
  H    -22.337687   27.631773   48.396911
  H    -23.733611   28.031708   47.373501
  O    -22.565071   26.477849   46.625433
  C    -23.997178   26.257925   48.578309
  C    -23.286878   25.051513   49.207763
  C    -22.645300   25.687467   50.467826
  C    -23.690233   26.746248   50.900032
  O    -24.562254   26.985002   49.722341
  H    -24.837140   25.923715   47.962201
  O    -24.252355   24.018849   49.555262
  H    -22.562417   24.578515   48.549363
  H    -22.465850   24.928961   51.233796
  H    -21.685649   26.142136   50.206180
  H    -23.238046   27.695244   51.205832
  H    -24.336157   26.393906   51.710688
  H    -25.035717   24.438393   49.969763

 Multiplicity           Mult            ....    1
 Number of Electrons    NEL             ....  102
 Basis Dimension        Dim             ....  149

ORBITAL ENERGIES
----------------

  NO   OCC          E(Eh)            E(eV)
   0   2.0000     -19.155980      -521.2607
   1   2.0000     -19.146614      -521.0059
   2   2.0000     -19.142035      -520.8812
   3   2.0000     -19.128995      -520.5264
   4   2.0000     -10.285064      -279.8708
   5   2.0000     -10.240063      -278.6463
   6   2.0000     -10.233418      -278.4655
   7   2.0000     -10.229282      -278.3529
   8   2.0000     -10.228266      -278.3253
   9   2.0000     -10.227820      -278.3131
  10   2.0000     -10.199916      -277.5538
  11   2.0000     -10.193863      -277.3891
  12   2.0000     -10.182060      -277.0679
  13   2.0000      -1.059462       -28.8294
  14   2.0000      -1.031871       -28.0786
  15   2.0000      -1.002262       -27.2729
  16   2.0000      -0.997780       -27.1510
  17   2.0000      -0.795885       -21.6571
  18   2.0000      -0.778276       -21.1780
  19   2.0000      -0.768009       -20.8986
  20   2.0000      -0.735956       -20.0264
  21   2.0000      -0.678621       -18.4662
  22   2.0000      -0.611509       -16.6400
  23   2.0000      -0.600501       -16.3405
  24   2.0000      -0.597045       -16.2464
  25   2.0000      -0.575880       -15.6705
  26   2.0000      -0.525533       -14.3005
  27   2.0000      -0.510652       -13.8956
  28   2.0000      -0.508854       -13.8466
  29   2.0000      -0.488410       -13.2903
  30   2.0000      -0.476801       -12.9744
  31   2.0000      -0.457318       -12.4442
  32   2.0000      -0.453596       -12.3430
  33   2.0000      -0.434531       -11.8242
  34   2.0000      -0.423616       -11.5272
  35   2.0000      -0.418724       -11.3941
  36   2.0000      -0.409758       -11.1501
  37   2.0000      -0.387599       -10.5471
  38   2.0000      -0.384962       -10.4754
  39   2.0000      -0.368868       -10.0374
  40   2.0000      -0.361809        -9.8453
  41   2.0000      -0.359386        -9.7794
  42   2.0000      -0.351140        -9.5550
  43   2.0000      -0.332540        -9.0489
  44   2.0000      -0.323265        -8.7965
  45   2.0000      -0.313894        -8.5415
  46   2.0000      -0.301550        -8.2056
  47   2.0000      -0.276134        -7.5140
  48   2.0000      -0.265267        -7.2183
  49   2.0000      -0.258493        -7.0339
  50   2.0000      -0.239432        -6.5153
  51   0.0000       0.055816         1.5188
  52   0.0000       0.068577         1.8661
  53   0.0000       0.089357         2.4315
  54   0.0000       0.093623         2.5476
  55   0.0000       0.106413         2.8956

MULLIKEN ATOMIC CHARGES
-----------------------
   0 C :    0.298919
   1 C :   -0.264167
   2 C :   -0.318578
   3 C :   -0.021305
   4 O :   -0.510800
   5 H :    0.169290
   6 H :    0.153004
   7 H :    0.157915
   8 H :    0.150400
   9 H :    0.154734
  10 H :    0.140975
  11 H :    0.155063
  12 C :   -0.014411
  13 H :    0.127827
  14 H :    0.158430
  15 O :   -0.527304
  16 C :    0.060568
  17 C :    0.087619
  18 C :   -0.308971
  19 C :   -0.030964
  20 O :   -0.529864
  21 H :    0.167326
  22 O :   -0.603328
  23 H :    0.186142
  24 H :    0.162585
  25 H :    0.153344
  26 H :    0.138735
  27 H :    0.146140
  28 H :    0.360675
Sum of atomic charges:   -0.0000000

LOEWDIN ATOMIC CHARGES
----------------------
   0 C :    0.176601
   1 C :   -0.226049
   2 C :   -0.224245
   3 C :   -0.037060
   4 O :   -0.324273
   5 H :    0.114204
   6 H :    0.119703
   7 H :    0.123862
   8 H :    0.118600
   9 H :    0.112106
  10 H :    0.096849
  11 H :    0.108587
  12 C :   -0.039234
  13 H :    0.097255
  14 H :    0.113694
  15 O :   -0.324873
  16 C :    0.013229
  17 C :    0.038265
  18 C :   -0.242892
  19 C :   -0.039904
  20 O :   -0.333920
  21 H :    0.118151
  22 O :   -0.415581
  23 H :    0.132105
  24 H :    0.127125
  25 H :    0.115253
  26 H :    0.100147
  27 H :    0.102387
  28 H :    0.279907

  Mayer bond orders larger than 0.100000
B(  0-C ,  1-C ) :   0.9175 B(  0-C ,  4-O ) :   0.8889 B(  0-C ,  5-H ) :   0.9345
B(  0-C , 15-O ) :   0.8914 B(  1-C ,  2-C ) :   0.9541 B(  1-C ,  6-H ) :   0.9346
B(  1-C ,  7-H ) :   0.9373 B(  2-C ,  3-C ) :   0.9481 B(  2-C ,  8-H ) :   0.9438
B(  2-C ,  9-H ) :   0.9418 B(  3-C ,  4-O ) :   0.8411 B(  3-C , 10-H ) :   0.9226
B(  3-C , 11-H ) :   0.9382 B( 12-C , 13-H ) :   0.9166 B( 12-C , 14-H ) :   0.9300
B( 12-C , 15-O ) :   0.8221 B( 12-C , 16-C ) :   0.8946 B( 16-C , 17-C ) :   0.9145
B( 16-C , 20-O ) :   0.8379 B( 16-C , 21-H ) :   0.9257 B( 17-C , 18-C ) :   0.9136
B( 17-C , 22-O ) :   0.8842 B( 17-C , 23-H ) :   0.9178 B( 18-C , 19-C ) :   0.9410
B( 18-C , 24-H ) :   0.9377 B( 18-C , 25-H ) :   0.9243 B( 19-C , 20-O ) :   0.8431
B( 19-C , 26-H ) :   0.9366 B( 19-C , 27-H ) :   0.9379 B( 22-O , 28-H ) :   0.7966

FINAL SINGLE POINT ENERGY      -652.859609416072

DIPOLE MOMENT
-------------
                                X             Y             Z
Electronic contribution:     -4.82692      -4.23753      -1.30270
Nuclear contribution   :      5.94969       5.57905       1.46459
                        -----------------------------------------
Total Dipole Moment    :      1.12277       1.34153       0.16188
                        -----------------------------------------
Magnitude (a.u.)       :      1.75685
Magnitude (Debye)      :      4.46555

Rotational constants in cm-1:     0.048676     0.015969     0.015592
Rotational constants in MHz :  1459.265488   478.740261   467.448202

                             ****ORCA TERMINATED NORMALLY****
TOTAL RUN TIME: 0 days 0 hours 29 minutes 20 seconds 253 msec
