                         Program Version 4.2.1 -  RELEASE  -
|  1> # Test redundant internal optimization
|  2> #
|  3> ! RKS B3LYP  Opt TightSCF SmallPrint
|  4>
|  5> %basis
|  6>         Basis "6-31G"
|  7> end
|  8>
|  9> %geom
| 10> Constraints
| 11> { D 4  0  19  14  315.0   C } # D for Dihedral angle
| 12> { D 0  19  14  12  180.0   C } # D for Dihedral angle
| 13> { D 0  4  3  2   C } # D for Dihedral angle
| 14> { D 4  3  2  1   C } # D for Dihedral angle
| 15> { D 3  2  1  0   C } # D for Dihedral angle
| 16> { D 2  1  0  4   C } # D for Dihedral angle
| 17> { D 1  0  4  3   C } # D for Dihedral angle
| 18> { D 14  15  16  17   C } # D for Dihedral angle
| 19> { D 15  16  17  12   C } # D for Dihedral angle
| 20> { D 16  17  12  14   C } # D for Dihedral angle
| 21> { D 17  12  14  15   C } # D for Dihedral angle
| 22> { D 12  14  15  16   C } # D for Dihedral angle
| 23> end
| 24> end
| 25>
| 26>
| 27> #%pal
| 28> #nprocs 8
| 29> #end
| 30>
| 31> * xyz 0 1
| 32> C  -21.048   26.222   46.251
| 33> C  -20.361   27.558   45.944
| 34> C  -20.329   28.222   47.341
| 35> C  -20.110   27.022   48.296
| 36> O  -20.473   25.807   47.535
| 37> H  -20.833   25.428   45.533
| 38> H  -19.344   27.382   45.576
| 39> H  -20.898   28.157   45.201
| 40> H  -19.543   28.978   47.434
| 41> H  -21.289   28.710   47.548
| 42> H  -20.733   27.082   49.195
| 43> H  -19.064   26.913   48.597
| 44> C  -24.640   25.586   47.136
| 45> H  -25.126   24.961   47.902
| 46> C  -23.132   25.318   47.072
| 47> C  -23.080   24.006   46.255
| 48> C  -24.251   24.168   45.253
| 49> O  -25.127   25.229   45.799
| 50> H  -24.907   26.630   47.305
| 51> O  -22.472   26.381   46.366
| 52> H  -22.670   25.221   48.060
| 53> H  -22.120   23.854   45.753
| 54> H  -23.253   23.144   46.913
| 55> H  -24.834   23.248   45.134
| 56> H  -23.915   24.505   44.268
| 57> *
| 58>
| 59>                          ****END OF INPUT****
 Total Charge           Charge          ....    0
 Multiplicity           Mult            ....    1
 Number of Electrons    NEL             ....   86
FINAL SINGLE POINT ENERGY      -538.434257376427
FINAL SINGLE POINT ENERGY      -538.437271717969
FINAL SINGLE POINT ENERGY      -538.437582765211
FINAL SINGLE POINT ENERGY      -538.437622474018
FINAL SINGLE POINT ENERGY      -538.437632473179
                    ***********************HURRAY********************

CARTESIAN COORDINATES (ANGSTROEM)
---------------------------------
  C    -20.989222   26.210081   46.244244
  C    -20.420812   27.600990   45.960979
  C    -20.388713   28.220808   47.375440
  C    -20.043840   27.019172   48.282959
  O    -20.346221   25.802989   47.478541
  H    -20.737245   25.438116   45.511002
  H    -19.411217   27.500409   45.546994
  H    -21.042401   28.161091   45.259407
  H    -19.656583   29.029311   47.464259
  H    -21.376855   28.619744   47.621630
  H    -20.633518   26.990852   49.203033
  H    -18.980756   26.966947   48.535375
  C    -24.604350   25.646908   47.075844
  H    -25.149260   25.080610   47.844690
  C    -23.123498   25.270555   47.080128
  C    -23.137320   23.943867   46.299196
  C    -24.250167   24.159340   45.246882
  O    -25.065890   25.293730   45.731591
  H    -24.768642   26.716674   47.210602
  O    -22.420969   26.342112   46.371839
  H    -22.697947   25.161342   48.081733
  H    -22.168385   23.701012   45.855055
  H    -23.394880   23.130467   46.987721
  H    -24.891796   23.278845   45.127915
  H    -23.851512   24.446027   44.269940

 Multiplicity           Mult            ....    1
 Number of Electrons    NEL             ....   86
 Basis Dimension        Dim             ....  127

ORBITAL ENERGIES
----------------

  NO   OCC          E(Eh)            E(eV)
   0   2.0000     -19.144852      -520.9579
   1   2.0000     -19.141539      -520.8677
   2   2.0000     -19.124462      -520.4031
   3   2.0000     -10.278247      -279.6853
   4   2.0000     -10.234405      -278.4923
   5   2.0000     -10.228611      -278.3346
   6   2.0000     -10.218258      -278.0529
   7   2.0000     -10.217737      -278.0388
   8   2.0000     -10.186553      -277.1902
   9   2.0000     -10.185437      -277.1598
  10   2.0000     -10.183531      -277.1080
  11   2.0000      -1.055727       -28.7278
  12   2.0000      -1.011305       -27.5190
  13   2.0000      -0.987978       -26.8843
  14   2.0000      -0.792989       -21.5783
  15   2.0000      -0.774437       -21.0735
  16   2.0000      -0.741978       -20.1903
  17   2.0000      -0.718803       -19.5596
  18   2.0000      -0.612069       -16.6552
  19   2.0000      -0.601182       -16.3590
  20   2.0000      -0.592991       -16.1361
  21   2.0000      -0.563846       -15.3430
  22   2.0000      -0.525815       -14.3081
  23   2.0000      -0.496151       -13.5010
  24   2.0000      -0.489271       -13.3137
  25   2.0000      -0.477886       -13.0039
  26   2.0000      -0.455401       -12.3921
  27   2.0000      -0.436686       -11.8828
  28   2.0000      -0.424576       -11.5533
  29   2.0000      -0.415096       -11.2953
  30   2.0000      -0.404986       -11.0202
  31   2.0000      -0.384514       -10.4632
  32   2.0000      -0.371651       -10.1131
  33   2.0000      -0.361358        -9.8330
  34   2.0000      -0.359593        -9.7850
  35   2.0000      -0.357252        -9.7213
  36   2.0000      -0.343308        -9.3419
  37   2.0000      -0.332233        -9.0405
  38   2.0000      -0.302244        -8.2245
  39   2.0000      -0.292378        -7.9560
  40   2.0000      -0.263153        -7.1608
  41   2.0000      -0.258426        -7.0321
  42   2.0000      -0.230974        -6.2851
  43   0.0000       0.077583         2.1111
  44   0.0000       0.096615         2.6290
  45   0.0000       0.102741         2.7957
  46   0.0000       0.109731         2.9859
  47   0.0000       0.116450         3.1688

MULLIKEN ATOMIC CHARGES
-----------------------
   0 C :    0.293678
   1 C :   -0.262374
   2 C :   -0.298227
   3 C :   -0.009529
   4 O :   -0.517934
   5 H :    0.144355
   6 H :    0.144126
   7 H :    0.164012
   8 H :    0.142660
   9 H :    0.161065
  10 H :    0.144071
  11 H :    0.146008
  12 C :    0.002256
  13 H :    0.124126
  14 C :    0.074625
  15 C :   -0.303963
  16 C :    0.005532
  17 O :   -0.520998
  18 H :    0.162119
  19 O :   -0.522185
  20 H :    0.149127
  21 H :    0.152699
  22 H :    0.143520
  23 H :    0.134853
  24 H :    0.146382
Sum of atomic charges:    0.0000000

LOEWDIN ATOMIC CHARGES
----------------------
   0 C :    0.173442
   1 C :   -0.213520
   2 C :   -0.216264
   3 C :   -0.029649
   4 O :   -0.331352
   5 H :    0.094093
   6 H :    0.113554
   7 H :    0.127918
   8 H :    0.114472
   9 H :    0.118576
  10 H :    0.103104
  11 H :    0.104355
  12 C :   -0.033512
  13 H :    0.091353
  14 C :    0.036061
  15 C :   -0.235116
  16 C :   -0.028766
  17 O :   -0.330599
  18 H :    0.120796
  19 O :   -0.323592
  20 H :    0.107168
  21 H :    0.119835
  22 H :    0.115053
  23 H :    0.097934
  24 H :    0.104655

  Mayer bond orders larger than 0.100000
B(  0-C ,  1-C ) :   0.9487 B(  0-C ,  4-O ) :   0.8919 B(  0-C ,  5-H ) :   0.9170
B(  0-C , 19-O ) :   0.8598 B(  1-C ,  2-C ) :   0.9548 B(  1-C ,  6-H ) :   0.9394
B(  1-C ,  7-H ) :   0.9346 B(  2-C ,  3-C ) :   0.9555 B(  2-C ,  8-H ) :   0.9449
B(  2-C ,  9-H ) :   0.9444 B(  3-C ,  4-O ) :   0.8346 B(  3-C , 10-H ) :   0.9356
B(  3-C , 11-H ) :   0.9405 B( 12-C , 13-H ) :   0.9167 B( 12-C , 14-C ) :   0.9356
B( 12-C , 17-O ) :   0.8708 B( 12-C , 18-H ) :   0.9308 B( 14-C , 15-C ) :   0.9326
B( 14-C , 19-O ) :   0.8266 B( 14-C , 20-H ) :   0.9163 B( 15-C , 16-C ) :   0.9423
B( 15-C , 21-H ) :   0.9363 B( 15-C , 22-H ) :   0.9380 B( 16-C , 17-O ) :   0.8598
B( 16-C , 23-H ) :   0.9332 B( 16-C , 24-H ) :   0.9376

FINAL SINGLE POINT ENERGY      -538.437633248602

DIPOLE MOMENT
-------------
                                X             Y             Z
Electronic contribution:     -1.87281      -0.81481      -0.84629
Nuclear contribution   :      2.72450       0.85704       1.33160
                        -----------------------------------------
Total Dipole Moment    :      0.85170       0.04222       0.48532
                        -----------------------------------------
Magnitude (a.u.)       :      0.98117
Magnitude (Debye)      :      2.49394

Rotational constants in cm-1:     0.085420     0.020499     0.020044
Rotational constants in MHz :  2560.821410   614.551357   600.893707

                             ****ORCA TERMINATED NORMALLY****
TOTAL RUN TIME: 0 days 0 hours 5 minutes 46 seconds 91 msec
