                         Program Version 4.2.0 -  RELEASE  -
|  1> # Test redundant internal optimization
|  2> #
|  3> ! RKS B3LYP  Opt TightSCF SmallPrint
|  4>
|  5> %basis
|  6>         Basis "6-31G"
|  7> end
|  8>
|  9> %geom
| 10> Constraints
| 11> { D 4  0  15  12  300.0   C } # D for Dihedral angle
| 12> { D 0  15  12  16  330.0   C } # D for Dihedral angle
| 13> { D 0  4  3  2   C } # D for Dihedral angle
| 14> { D 4  3  2  1   C } # D for Dihedral angle
| 15> { D 3  2  1  0   C } # D for Dihedral angle
| 16> { D 2  1  0  4   C } # D for Dihedral angle
| 17> { D 1  0  4  3   C } # D for Dihedral angle
| 18> { D 16  20  19  18   C } # D for Dihedral angle
| 19> { D 20  19  18  17   C } # D for Dihedral angle
| 20> { D 19  18  17  16   C } # D for Dihedral angle
| 21> { D 18  17  16  20   C } # D for Dihedral angle
| 22> { D 17  16  20  19   C } # D for Dihedral angle
| 23> { D 15  12  16  20   C } # D for Dihedral angle
| 24> end
| 25> end
| 26>
| 27>
| 28> #%pal
| 29> #nprocs 8
| 30> #end
| 31>
| 32> * xyz 0 1
| 33> C  -21.048   26.222   46.251
| 34> C  -20.361   27.558   45.944
| 35> C  -20.329   28.222   47.341
| 36> C  -20.110   27.022   48.296
| 37> O  -20.473   25.807   47.535
| 38> H  -20.833   25.428   45.533
| 39> H  -19.344   27.382   45.576
| 40> H  -20.898   28.157   45.201
| 41> H  -19.543   28.978   47.434
| 42> H  -21.289   28.710   47.548
| 43> H  -20.733   27.082   49.195
| 44> H  -19.064   26.913   48.597
| 45> C  -23.362   25.116   46.798
| 46> H  -23.440   25.086   47.892
| 47> H  -24.377   25.128   46.381
| 48> O  -22.586   26.394   46.375
| 49> C  -22.670   23.809   46.321
| 50> C  -23.519   22.577   46.654
| 51> C  -24.577   22.611   45.525
| 52> C  -23.779   23.150   44.312
| 53> O  -22.563   23.789   44.859
| 54> H  -21.653   23.777   46.717
| 55> O  -22.654   21.291   46.556
| 56> H  -23.964   22.619   47.654
| 57> H  -25.022   21.630   45.330
| 58> H  -25.388   23.300   45.790
| 59> H  -24.344   23.889   43.733
| 60> H  -23.449   22.351   43.641
| 61> H  -22.199   21.228   45.561
| 62> *
| 63>
| 64>                          ****END OF INPUT****
 Total Charge           Charge          ....    0
 Multiplicity           Mult            ....    1
 Number of Electrons    NEL             ....  102
FINAL SINGLE POINT ENERGY      -652.836901855209
FINAL SINGLE POINT ENERGY      -652.860467989659
FINAL SINGLE POINT ENERGY      -652.864848554900
FINAL SINGLE POINT ENERGY      -652.865678952689
FINAL SINGLE POINT ENERGY      -652.865826736296
FINAL SINGLE POINT ENERGY      -652.865848239360
                    ***********************HURRAY********************

CARTESIAN COORDINATES (ANGSTROEM)
---------------------------------
  C    -21.013653   26.189856   46.211437
  C    -20.451680   27.591495   45.967850
  C    -20.434631   28.177387   47.398230
  C    -20.088875   26.952449   48.276109
  O    -20.376350   25.757963   47.441510
  H    -20.774608   25.441378   45.454334
  H    -19.437779   27.506218   45.560897
  H    -21.069024   28.164295   45.273114
  H    -19.708048   28.987500   47.514721
  H    -21.427500   28.562295   47.647428
  H    -20.685280   26.898635   49.190842
  H    -19.027239   26.903308   48.536498
  C    -23.212416   25.152103   46.733783
  H    -23.298209   25.126179   47.828920
  H    -24.205265   25.328100   46.309908
  O    -22.440760   26.331415   46.353198
  C    -22.643619   23.807572   46.275201
  C    -23.542409   22.619453   46.652205
  C    -24.599230   22.648762   45.514415
  C    -23.773765   23.110436   44.285100
  O    -22.534280   23.724890   44.815201
  H    -21.637681   23.671847   46.680111
  O    -22.790444   21.376501   46.657457
  H    -23.978839   22.694543   47.648972
  H    -25.048846   21.661941   45.379946
  H    -25.395656   23.361811   45.751122
  H    -24.303000   23.847501   43.673197
  H    -23.472344   22.276440   43.643369
  H    -22.199570   21.353728   45.874926

 Multiplicity           Mult            ....    1
 Number of Electrons    NEL             ....  102
 Basis Dimension        Dim             ....  149

ORBITAL ENERGIES
----------------

  NO   OCC          E(Eh)            E(eV)
   0   2.0000     -19.144448      -520.9469
   1   2.0000     -19.139418      -520.8100
   2   2.0000     -19.138153      -520.7756
   3   2.0000     -19.136847      -520.7401
   4   2.0000     -10.269224      -279.4398
   5   2.0000     -10.244030      -278.7542
   6   2.0000     -10.233121      -278.4574
   7   2.0000     -10.232945      -278.4526
   8   2.0000     -10.228943      -278.3437
   9   2.0000     -10.222259      -278.1618
  10   2.0000     -10.191293      -277.3192
  11   2.0000     -10.180779      -277.0331
  12   2.0000     -10.179311      -276.9931
  13   2.0000      -1.050061       -28.5736
  14   2.0000      -1.036834       -28.2137
  15   2.0000      -1.007562       -27.4172
  16   2.0000      -0.987326       -26.8665
  17   2.0000      -0.788880       -21.4665
  18   2.0000      -0.780277       -21.2324
  19   2.0000      -0.763760       -20.7830
  20   2.0000      -0.730898       -19.8887
  21   2.0000      -0.671937       -18.2843
  22   2.0000      -0.606053       -16.4915
  23   2.0000      -0.604720       -16.4553
  24   2.0000      -0.593858       -16.1597
  25   2.0000      -0.564864       -15.3707
  26   2.0000      -0.527175       -14.3452
  27   2.0000      -0.509013       -13.8509
  28   2.0000      -0.493741       -13.4354
  29   2.0000      -0.482334       -13.1250
  30   2.0000      -0.474558       -12.9134
  31   2.0000      -0.457278       -12.4432
  32   2.0000      -0.448447       -12.2029
  33   2.0000      -0.439763       -11.9666
  34   2.0000      -0.419411       -11.4128
  35   2.0000      -0.404375       -11.0036
  36   2.0000      -0.400173       -10.8893
  37   2.0000      -0.394584       -10.7372
  38   2.0000      -0.378778       -10.3071
  39   2.0000      -0.366172        -9.9641
  40   2.0000      -0.361092        -9.8258
  41   2.0000      -0.352072        -9.5804
  42   2.0000      -0.343280        -9.3411
  43   2.0000      -0.332853        -9.0574
  44   2.0000      -0.324345        -8.8259
  45   2.0000      -0.311513        -8.4767
  46   2.0000      -0.294277        -8.0077
  47   2.0000      -0.274961        -7.4821
  48   2.0000      -0.265213        -7.2168
  49   2.0000      -0.247137        -6.7249
  50   2.0000      -0.242324        -6.5940
  51   0.0000       0.064813         1.7636
  52   0.0000       0.087643         2.3849
  53   0.0000       0.088806         2.4165
  54   0.0000       0.099695         2.7128
  55   0.0000       0.102943         2.8012

MULLIKEN ATOMIC CHARGES
-----------------------
   0 C :    0.275023
   1 C :   -0.260167
   2 C :   -0.298284
   3 C :   -0.003000
   4 O :   -0.523391
   5 H :    0.176055
   6 H :    0.144274
   7 H :    0.158868
   8 H :    0.138875
   9 H :    0.160401
  10 H :    0.142894
  11 H :    0.142619
  12 C :    0.026777
  13 H :    0.137689
  14 H :    0.142069
  15 O :   -0.529924
  16 C :    0.017130
  17 C :    0.082492
  18 C :   -0.296412
  19 C :   -0.030081
  20 O :   -0.526115
  21 H :    0.196952
  22 O :   -0.600848
  23 H :    0.152612
  24 H :    0.162915
  25 H :    0.146057
  26 H :    0.150956
  27 H :    0.148159
  28 H :    0.365403
Sum of atomic charges:    0.0000000

LOEWDIN ATOMIC CHARGES
----------------------
   0 C :    0.166501
   1 C :   -0.211762
   2 C :   -0.216276
   3 C :   -0.028143
   4 O :   -0.338036
   5 H :    0.110703
   6 H :    0.113514
   7 H :    0.125398
   8 H :    0.112202
   9 H :    0.118229
  10 H :    0.102836
  11 H :    0.102467
  12 C :   -0.038421
  13 H :    0.102302
  14 H :    0.108674
  15 O :   -0.322372
  16 C :   -0.004362
  17 C :    0.040379
  18 C :   -0.240494
  19 C :   -0.037878
  20 O :   -0.333089
  21 H :    0.130332
  22 O :   -0.412622
  23 H :    0.116127
  24 H :    0.126825
  25 H :    0.113458
  26 H :    0.106297
  27 H :    0.103333
  28 H :    0.283879

  Mayer bond orders larger than 0.100000
B(  0-C ,  1-C ) :   0.9473 B(  0-C ,  4-O ) :   0.8802 B(  0-C ,  5-H ) :   0.9054
B(  0-C , 15-O ) :   0.8599 B(  1-C ,  2-C ) :   0.9545 B(  1-C ,  6-H ) :   0.9412
B(  1-C ,  7-H ) :   0.9366 B(  2-C ,  3-C ) :   0.9559 B(  2-C ,  8-H ) :   0.9455
B(  2-C ,  9-H ) :   0.9445 B(  3-C ,  4-O ) :   0.8360 B(  3-C , 10-H ) :   0.9364
B(  3-C , 11-H ) :   0.9407 B( 12-C , 13-H ) :   0.9130 B( 12-C , 14-H ) :   0.9355
B( 12-C , 15-O ) :   0.8457 B( 12-C , 16-C ) :   0.8968 B( 16-C , 17-C ) :   0.8945
B( 16-C , 20-O ) :   0.8342 B( 16-C , 21-H ) :   0.9049 B( 17-C , 18-C ) :   0.9090
B( 17-C , 22-O ) :   0.8955 B( 17-C , 23-H ) :   0.9339 B( 18-C , 19-C ) :   0.9416
B( 18-C , 24-H ) :   0.9373 B( 18-C , 25-H ) :   0.9342 B( 19-C , 20-O ) :   0.8432
B( 19-C , 26-H ) :   0.9343 B( 19-C , 27-H ) :   0.9376 B( 22-O , 28-H ) :   0.7941

FINAL SINGLE POINT ENERGY      -652.865850293809

DIPOLE MOMENT
-------------
                                X             Y             Z
Electronic contribution:      0.83534      -3.38537      -0.52604
Nuclear contribution   :     -1.27360       3.88654       0.32572
                        -----------------------------------------
Total Dipole Moment    :     -0.43826       0.50117      -0.20032
                        -----------------------------------------
Magnitude (a.u.)       :      0.69525
Magnitude (Debye)      :      1.76718

Rotational constants in cm-1:     0.062290     0.013311     0.012393
Rotational constants in MHz :  1867.414797   399.042055   371.526872

                             ****ORCA TERMINATED NORMALLY****
TOTAL RUN TIME: 0 days 0 hours 21 minutes 20 seconds 586 msec
