                         Program Version 4.2.0 -  RELEASE  -
|  1> # Test redundant internal optimization
|  2> #
|  3> ! RKS B3LYP  Opt TightSCF SmallPrint
|  4>
|  5> %basis
|  6>         Basis "6-31G"
|  7> end
|  8>
|  9> %geom
| 10> Constraints
| 11> { D 4  0  15  12  150.0   C } # D for Dihedral angle
| 12> { D 0  15  12  16  330.0   C } # D for Dihedral angle
| 13> { D 0  4  3  2   C } # D for Dihedral angle
| 14> { D 4  3  2  1   C } # D for Dihedral angle
| 15> { D 3  2  1  0   C } # D for Dihedral angle
| 16> { D 2  1  0  4   C } # D for Dihedral angle
| 17> { D 1  0  4  3   C } # D for Dihedral angle
| 18> { D 16  20  19  18   C } # D for Dihedral angle
| 19> { D 20  19  18  17   C } # D for Dihedral angle
| 20> { D 19  18  17  16   C } # D for Dihedral angle
| 21> { D 18  17  16  20   C } # D for Dihedral angle
| 22> { D 17  16  20  19   C } # D for Dihedral angle
| 23> { D 15  12  16  20   C } # D for Dihedral angle
| 24> end
| 25> end
| 26>
| 27>
| 28> #%pal
| 29> #nprocs 8
| 30> #end
| 31>
| 32> * xyz 0 1
| 33> C  -21.048   26.222   46.251
| 34> C  -20.361   27.558   45.944
| 35> C  -20.329   28.222   47.341
| 36> C  -20.110   27.022   48.296
| 37> O  -20.473   25.807   47.535
| 38> H  -20.833   25.428   45.533
| 39> H  -19.344   27.382   45.576
| 40> H  -20.898   28.157   45.201
| 41> H  -19.543   28.978   47.434
| 42> H  -21.289   28.710   47.548
| 43> H  -20.733   27.082   49.195
| 44> H  -19.064   26.913   48.597
| 45> C  -23.210   27.459   45.431
| 46> H  -23.503   26.980   44.489
| 47> H  -24.107   27.897   45.887
| 48> O  -22.586   26.394   46.375
| 49> C  -22.230   28.620   45.105
| 50> C  -22.914   29.707   44.269
| 51> C  -23.711   30.477   45.348
| 52> C  -22.783   30.409   46.587
| 53> O  -21.826   29.311   46.335
| 54> H  -21.323   28.208   44.657
| 55> H  -22.162   30.356   43.807
| 56> O  -23.821   29.133   43.146
| 57> H  -23.939   31.507   45.054
| 58> H  -24.662   29.969   45.549
| 59> H  -23.333   30.201   47.512
| 60> H  -22.198   31.323   46.721
| 61> H  -24.583   28.480   43.585
| 62> *
| 63>
| 64>                          ****END OF INPUT****
 Total Charge           Charge          ....    0
 Multiplicity           Mult            ....    1
 Number of Electrons    NEL             ....  102
FINAL SINGLE POINT ENERGY      -652.555040865336
FINAL SINGLE POINT ENERGY      -652.646204716551
FINAL SINGLE POINT ENERGY      -652.701581386780
FINAL SINGLE POINT ENERGY      -652.738855474422
FINAL SINGLE POINT ENERGY      -652.764613921358
FINAL SINGLE POINT ENERGY      -652.783170243289
FINAL SINGLE POINT ENERGY      -652.796631283553
FINAL SINGLE POINT ENERGY      -652.806347287303
FINAL SINGLE POINT ENERGY      -652.813411638587
FINAL SINGLE POINT ENERGY      -652.818611893446
FINAL SINGLE POINT ENERGY      -652.838259815694
FINAL SINGLE POINT ENERGY      -652.838249059769
FINAL SINGLE POINT ENERGY      -652.838231620672
FINAL SINGLE POINT ENERGY      -652.838183159273
FINAL SINGLE POINT ENERGY      -652.838018670930
FINAL SINGLE POINT ENERGY      -652.838025880189
FINAL SINGLE POINT ENERGY      -652.838164139466
FINAL SINGLE POINT ENERGY      -652.838175341871
FINAL SINGLE POINT ENERGY      -652.838152044830
                    ***********************HURRAY********************

CARTESIAN COORDINATES (ANGSTROEM)
---------------------------------
  C    -20.911411   26.193905   46.279188
  C    -19.818413   27.255824   46.136308
  C    -19.863435   27.960825   47.521870
  C    -20.198056   26.792872   48.473939
  O    -20.744314   25.713536   47.619219
  H    -20.773035   25.329753   45.622435
  H    -18.868151   26.724053   46.005544
  H    -19.937600   27.943602   45.301514
  H    -18.912018   28.440882   47.771409
  H    -20.648899   28.717642   47.512175
  H    -20.945927   27.054069   49.228014
  H    -19.314797   26.379509   48.970917
  C    -22.997284   27.598307   45.367281
  H    -23.336187   27.116569   44.436396
  H    -23.884906   27.814976   45.973134
  O    -22.315729   26.589292   46.161801
  C    -22.352113   28.917717   44.931043
  C    -23.341377   29.808079   44.153398
  C    -24.113421   30.521880   45.311800
  C    -23.014795   30.705445   46.382196
  O    -21.916350   29.764344   46.036906
  H    -21.464717   28.724997   44.325386
  H    -22.774314   30.541286   43.575371
  O    -24.169199   29.141754   43.175672
  H    -24.552516   31.468139   44.987456
  H    -24.924160   29.876452   45.673085
  H    -23.363411   30.484110   47.395234
  H    -22.586006   31.711609   46.367546
  H    -24.873460   28.620571   43.611762

 Multiplicity           Mult            ....    1
 Number of Electrons    NEL             ....  102
 Basis Dimension        Dim             ....  149

ORBITAL ENERGIES
----------------

  NO   OCC          E(Eh)            E(eV)
   0   2.0000     -19.157861      -521.3119
   1   2.0000     -19.152435      -521.1643
   2   2.0000     -19.128343      -520.5087
   3   2.0000     -19.126526      -520.4592
   4   2.0000     -10.273527      -279.5569
   5   2.0000     -10.255483      -279.0659
   6   2.0000     -10.241997      -278.6989
   7   2.0000     -10.241500      -278.6854
   8   2.0000     -10.235204      -278.5141
   9   2.0000     -10.212920      -277.9077
  10   2.0000     -10.203988      -277.6646
  11   2.0000     -10.178325      -276.9663
  12   2.0000     -10.167693      -276.6770
  13   2.0000      -1.045583       -28.4518
  14   2.0000      -1.037355       -28.2279
  15   2.0000      -1.027251       -27.9529
  16   2.0000      -0.977956       -26.6115
  17   2.0000      -0.792601       -21.5678
  18   2.0000      -0.775252       -21.0957
  19   2.0000      -0.772336       -21.0163
  20   2.0000      -0.731483       -19.9047
  21   2.0000      -0.684369       -18.6226
  22   2.0000      -0.621746       -16.9186
  23   2.0000      -0.604734       -16.4556
  24   2.0000      -0.587744       -15.9933
  25   2.0000      -0.566831       -15.4242
  26   2.0000      -0.531937       -14.4747
  27   2.0000      -0.513805       -13.9813
  28   2.0000      -0.491135       -13.3645
  29   2.0000      -0.488468       -13.2919
  30   2.0000      -0.466465       -12.6931
  31   2.0000      -0.455109       -12.3841
  32   2.0000      -0.442882       -12.0514
  33   2.0000      -0.437224       -11.8975
  34   2.0000      -0.434920       -11.8348
  35   2.0000      -0.422733       -11.5032
  36   2.0000      -0.409840       -11.1523
  37   2.0000      -0.403472       -10.9790
  38   2.0000      -0.385727       -10.4962
  39   2.0000      -0.370009       -10.0685
  40   2.0000      -0.360088        -9.7985
  41   2.0000      -0.351038        -9.5522
  42   2.0000      -0.342262        -9.3134
  43   2.0000      -0.333668        -9.0796
  44   2.0000      -0.320071        -8.7096
  45   2.0000      -0.301621        -8.2075
  46   2.0000      -0.283209        -7.7065
  47   2.0000      -0.279505        -7.6057
  48   2.0000      -0.257048        -6.9946
  49   2.0000      -0.250876        -6.8267
  50   2.0000      -0.234959        -6.3936
  51   0.0000       0.045472         1.2373
  52   0.0000       0.068563         1.8657
  53   0.0000       0.077583         2.1111
  54   0.0000       0.093560         2.5459
  55   0.0000       0.103034         2.8037

MULLIKEN ATOMIC CHARGES
-----------------------
   0 C :    0.318364
   1 C :   -0.279212
   2 C :   -0.318274
   3 C :   -0.002741
   4 O :   -0.496824
   5 H :    0.143792
   6 H :    0.141912
   7 H :    0.141574
   8 H :    0.128355
   9 H :    0.201036
  10 H :    0.143985
  11 H :    0.137340
  12 C :    0.017689
  13 H :    0.129380
  14 H :    0.138248
  15 O :   -0.544111
  16 C :    0.059808
  17 C :    0.085301
  18 C :   -0.324016
  19 C :   -0.008282
  20 O :   -0.516519
  21 H :    0.161076
  22 H :    0.170215
  23 O :   -0.595011
  24 H :    0.160715
  25 H :    0.141441
  26 H :    0.150801
  27 H :    0.153609
  28 H :    0.360350
Sum of atomic charges:    0.0000000

LOEWDIN ATOMIC CHARGES
----------------------
   0 C :    0.193111
   1 C :   -0.227464
   2 C :   -0.228872
   3 C :   -0.028737
   4 O :   -0.306054
   5 H :    0.097081
   6 H :    0.114996
   7 H :    0.113855
   8 H :    0.109291
   9 H :    0.133577
  10 H :    0.103490
  11 H :    0.099108
  12 C :   -0.039683
  13 H :    0.097319
  14 H :    0.104618
  15 O :   -0.347042
  16 C :    0.001741
  17 C :    0.038832
  18 C :   -0.241085
  19 C :   -0.028089
  20 O :   -0.318047
  21 H :    0.111813
  22 H :    0.119999
  23 O :   -0.402089
  24 H :    0.124734
  25 H :    0.107828
  26 H :    0.106720
  27 H :    0.108155
  28 H :    0.280894

  Mayer bond orders larger than 0.100000
B(  0-C ,  1-C ) :   0.9278 B(  0-C ,  4-O ) :   0.9358 B(  0-C ,  5-H ) :   0.9277
B(  0-C , 15-O ) :   0.8369 B(  1-C ,  2-C ) :   0.9540 B(  1-C ,  6-H ) :   0.9332
B(  1-C ,  7-H ) :   0.9255 B(  2-C ,  3-C ) :   0.9520 B(  2-C ,  8-H ) :   0.9476
B(  2-C ,  9-H ) :   0.9102 B(  3-C ,  4-O ) :   0.8338 B(  3-C , 10-H ) :   0.9363
B(  3-C , 11-H ) :   0.9401 B( 12-C , 13-H ) :   0.8996 B( 12-C , 14-H ) :   0.9328
B( 12-C , 15-O ) :   0.8726 B( 12-C , 16-C ) :   0.8892 B( 16-C , 17-C ) :   0.8600
B( 16-C , 20-O ) :   0.8439 B( 16-C , 21-H ) :   0.9206 B( 17-C , 18-C ) :   0.9227
B( 17-C , 22-H ) :   0.9331 B( 17-C , 23-O ) :   0.9084 B( 18-C , 19-C ) :   0.9392
B( 18-C , 24-H ) :   0.9414 B( 18-C , 25-H ) :   0.9391 B( 19-C , 20-O ) :   0.8335
B( 19-C , 26-H ) :   0.9322 B( 19-C , 27-H ) :   0.9380 B( 23-O , 28-H ) :   0.7948

FINAL SINGLE POINT ENERGY      -652.838166569515

DIPOLE MOMENT
-------------
                                X             Y             Z
Electronic contribution:     -1.16544      -3.67822      -1.53006
Nuclear contribution   :      0.83429       5.06360       1.38804
                        -----------------------------------------
Total Dipole Moment    :     -0.33115       1.38537      -0.14202
                        -----------------------------------------
Magnitude (a.u.)       :      1.43147
Magnitude (Debye)      :      3.63850

Rotational constants in cm-1:     0.051954     0.015357     0.013534
Rotational constants in MHz :  1557.533836   460.390184   405.738470

                             ****ORCA TERMINATED NORMALLY****
TOTAL RUN TIME: 0 days 7 hours 32 minutes 30 seconds 233 msec
