                         Program Version 4.2.0 -  RELEASE  -
|  1> # Test redundant internal optimization
|  2> #
|  3> ! RKS B3LYP  Opt TightSCF SmallPrint
|  4>
|  5> %basis
|  6>         Basis "6-31G"
|  7> end
|  8>
|  9> %geom
| 10> Constraints
| 11> { D 4  0  15  12  270.0   C } # D for Dihedral angle
| 12> { D 0  15  12  16  150.0   C } # D for Dihedral angle
| 13> { D 0  4  3  2   C } # D for Dihedral angle
| 14> { D 4  3  2  1   C } # D for Dihedral angle
| 15> { D 3  2  1  0   C } # D for Dihedral angle
| 16> { D 2  1  0  4   C } # D for Dihedral angle
| 17> { D 1  0  4  3   C } # D for Dihedral angle
| 18> { D 16  20  19  18   C } # D for Dihedral angle
| 19> { D 20  19  18  17   C } # D for Dihedral angle
| 20> { D 19  18  17  16   C } # D for Dihedral angle
| 21> { D 18  17  16  20   C } # D for Dihedral angle
| 22> { D 17  16  20  19   C } # D for Dihedral angle
| 23> { D 15  12  16  20   C } # D for Dihedral angle
| 24> end
| 25> end
| 26>
| 27>
| 28> #%pal
| 29> #nprocs 8
| 30> #end
| 31>
| 32> * xyz 0 1
| 33> C  -21.048   26.222   46.251
| 34> C  -20.361   27.558   45.944
| 35> C  -20.329   28.222   47.341
| 36> C  -20.110   27.022   48.296
| 37> O  -20.473   25.807   47.535
| 38> H  -20.833   25.428   45.533
| 39> H  -19.344   27.382   45.576
| 40> H  -20.898   28.157   45.201
| 41> H  -19.543   28.978   47.434
| 42> H  -21.289   28.710   47.548
| 43> H  -20.733   27.082   49.195
| 44> H  -19.064   26.913   48.597
| 45> C  -23.420   25.119   46.072
| 46> H  -23.657   25.087   45.002
| 47> H  -22.847   24.217   46.324
| 48> O  -22.586   26.394   46.375
| 49> C  -24.753   25.070   46.869
| 50> C  -25.692   26.207   46.453
| 51> C  -26.283   25.658   45.132
| 52> C  -26.386   24.135   45.399
| 53> O  -25.498   23.848   46.546
| 54> H  -24.530   25.035   47.937
| 55> H  -26.480   26.337   47.204
| 56> O  -24.962   27.565   46.268
| 57> H  -27.250   26.104   44.882
| 58> H  -25.596   25.859   44.301
| 59> H  -26.067   23.536   44.540
| 60> H  -27.395   23.829   45.688
| 61> H  -24.169   27.458   45.520
| 62> *
| 63>
| 64>                          ****END OF INPUT****
 Total Charge           Charge          ....    0
 Multiplicity           Mult            ....    1
 Number of Electrons    NEL             ....  102
FINAL SINGLE POINT ENERGY      -652.834161679041
FINAL SINGLE POINT ENERGY      -652.858802544572
FINAL SINGLE POINT ENERGY      -652.865109766708
FINAL SINGLE POINT ENERGY      -652.867388605733
FINAL SINGLE POINT ENERGY      -652.868704906455
FINAL SINGLE POINT ENERGY      -652.869418137738
FINAL SINGLE POINT ENERGY      -652.869662581856
FINAL SINGLE POINT ENERGY      -652.869715263088
FINAL SINGLE POINT ENERGY      -652.869719186747
                    ***********************HURRAY********************

CARTESIAN COORDINATES (ANGSTROEM)
---------------------------------
  C    -21.067719   26.123822   46.208166
  C    -20.495913   27.510598   45.916871
  C    -20.575254   28.186143   47.306249
  C    -20.284809   27.020839   48.276532
  O    -20.515513   25.777559   47.492682
  H    -20.787537   25.328332   45.513427
  H    -19.454865   27.407118   45.590683
  H    -21.057128   28.039668   45.143782
  H    -19.859260   29.006119   47.414493
  H    -21.580806   28.585263   47.469934
  H    -20.942750   27.011643   49.148692
  H    -19.242947   26.989215   48.607454
  C    -23.297246   25.028515   46.001794
  H    -23.489379   24.951800   44.924343
  H    -22.745336   24.142670   46.332795
  O    -22.513506   26.242134   46.266850
  C    -24.598874   25.131744   46.803510
  C    -25.518232   26.297324   46.403080
  C    -26.210370   25.730011   45.128332
  C    -26.356584   24.228382   45.449378
  O    -25.405850   23.937402   46.564120
  H    -24.354403   25.144480   47.868911
  H    -26.267351   26.438016   47.190479
  O    -24.875320   27.569995   46.192997
  H    -27.168468   26.218772   44.934509
  H    -25.560948   25.907609   44.264251
  H    -26.114839   23.576565   44.603900
  H    -27.354159   23.971091   45.817325
  H    -23.900634   27.436172   46.127465

 Multiplicity           Mult            ....    1
 Number of Electrons    NEL             ....  102
 Basis Dimension        Dim             ....  149

ORBITAL ENERGIES
----------------

  NO   OCC          E(Eh)            E(eV)
   0   2.0000     -19.164480      -521.4920
   1   2.0000     -19.148167      -521.0481
   2   2.0000     -19.139468      -520.8114
   3   2.0000     -19.113029      -520.0920
   4   2.0000     -10.292109      -280.0625
   5   2.0000     -10.238115      -278.5933
   6   2.0000     -10.232906      -278.4515
   7   2.0000     -10.231430      -278.4114
   8   2.0000     -10.229718      -278.3648
   9   2.0000     -10.226007      -278.2638
  10   2.0000     -10.194437      -277.4047
  11   2.0000     -10.192113      -277.3415
  12   2.0000     -10.178764      -276.9782
  13   2.0000      -1.065842       -29.0030
  14   2.0000      -1.024726       -27.8842
  15   2.0000      -1.007117       -27.4051
  16   2.0000      -0.992075       -26.9957
  17   2.0000      -0.796605       -21.6767
  18   2.0000      -0.772582       -21.0230
  19   2.0000      -0.767201       -20.8766
  20   2.0000      -0.735062       -20.0021
  21   2.0000      -0.678413       -18.4606
  22   2.0000      -0.606362       -16.4999
  23   2.0000      -0.601412       -16.3653
  24   2.0000      -0.593369       -16.1464
  25   2.0000      -0.582015       -15.8374
  26   2.0000      -0.528702       -14.3867
  27   2.0000      -0.522528       -14.2187
  28   2.0000      -0.499760       -13.5992
  29   2.0000      -0.485759       -13.2182
  30   2.0000      -0.473091       -12.8735
  31   2.0000      -0.460741       -12.5374
  32   2.0000      -0.439992       -11.9728
  33   2.0000      -0.435578       -11.8527
  34   2.0000      -0.425364       -11.5748
  35   2.0000      -0.421215       -11.4619
  36   2.0000      -0.406973       -11.0743
  37   2.0000      -0.387845       -10.5538
  38   2.0000      -0.381867       -10.3911
  39   2.0000      -0.367723       -10.0063
  40   2.0000      -0.363821        -9.9001
  41   2.0000      -0.356696        -9.7062
  42   2.0000      -0.347566        -9.4578
  43   2.0000      -0.345547        -9.4028
  44   2.0000      -0.326277        -8.8785
  45   2.0000      -0.315128        -8.5751
  46   2.0000      -0.290111        -7.8943
  47   2.0000      -0.281708        -7.6657
  48   2.0000      -0.260388        -7.0855
  49   2.0000      -0.249581        -6.7914
  50   2.0000      -0.241351        -6.5675
  51   0.0000       0.055592         1.5127
  52   0.0000       0.084214         2.2916
  53   0.0000       0.092920         2.5285
  54   0.0000       0.097679         2.6580
  55   0.0000       0.103826         2.8252

MULLIKEN ATOMIC CHARGES
-----------------------
   0 C :    0.294720
   1 C :   -0.263731
   2 C :   -0.304383
   3 C :   -0.004522
   4 O :   -0.504049
   5 H :    0.150700
   6 H :    0.151544
   7 H :    0.154900
   8 H :    0.146920
   9 H :    0.167715
  10 H :    0.154747
  11 H :    0.146738
  12 C :   -0.019388
  13 H :    0.142808
  14 H :    0.170886
  15 O :   -0.561961
  16 C :    0.051813
  17 C :    0.117309
  18 C :   -0.300657
  19 C :   -0.021244
  20 O :   -0.520371
  21 H :    0.164388
  22 H :    0.148833
  23 O :   -0.642976
  24 H :    0.151073
  25 H :    0.143305
  26 H :    0.142501
  27 H :    0.147992
  28 H :    0.394391
Sum of atomic charges:   -0.0000000

LOEWDIN ATOMIC CHARGES
----------------------
   0 C :    0.177297
   1 C :   -0.216918
   2 C :   -0.216457
   3 C :   -0.026574
   4 O :   -0.320954
   5 H :    0.103827
   6 H :    0.117450
   7 H :    0.122351
   8 H :    0.116837
   9 H :    0.120649
  10 H :    0.109509
  11 H :    0.105227
  12 C :   -0.044247
  13 H :    0.099391
  14 H :    0.119136
  15 O :   -0.342583
  16 C :    0.017399
  17 C :    0.041287
  18 C :   -0.236945
  19 C :   -0.032655
  20 O :   -0.323721
  21 H :    0.118329
  22 H :    0.105848
  23 O :   -0.436560
  24 H :    0.121292
  25 H :    0.110096
  26 H :    0.101754
  27 H :    0.105544
  28 H :    0.284390

  Mayer bond orders larger than 0.100000
B(  0-C ,  1-C ) :   0.9494 B(  0-C ,  4-O ) :   0.9324 B(  0-C ,  5-H ) :   0.9217
B(  0-C , 15-O ) :   0.8169 B(  1-C ,  2-C ) :   0.9552 B(  1-C ,  6-H ) :   0.9385
B(  1-C ,  7-H ) :   0.9364 B(  2-C ,  3-C ) :   0.9532 B(  2-C ,  8-H ) :   0.9447
B(  2-C ,  9-H ) :   0.9428 B(  3-C ,  4-O ) :   0.8306 B(  3-C , 10-H ) :   0.9349
B(  3-C , 11-H ) :   0.9399 B( 12-C , 13-H ) :   0.9244 B( 12-C , 14-H ) :   0.9218
B( 12-C , 15-O ) :   0.7815 B( 12-C , 16-C ) :   0.9071 B( 16-C , 17-C ) :   0.9145
B( 16-C , 20-O ) :   0.8554 B( 16-C , 21-H ) :   0.9275 B( 17-C , 18-C ) :   0.9013
B( 17-C , 22-H ) :   0.9301 B( 17-C , 23-O ) :   0.9327 B( 18-C , 19-C ) :   0.9386
B( 18-C , 24-H ) :   0.9447 B( 18-C , 25-H ) :   0.9439 B( 19-C , 20-O ) :   0.8319
B( 19-C , 26-H ) :   0.9342 B( 19-C , 27-H ) :   0.9390 B( 23-O , 28-H ) :   0.7226

FINAL SINGLE POINT ENERGY      -652.869720394695

DIPOLE MOMENT
-------------
                                X             Y             Z
Electronic contribution:     -0.64007      -2.68392       1.68370
Nuclear contribution   :      1.39730       2.95201      -2.29984
                        -----------------------------------------
Total Dipole Moment    :      0.75723       0.26809      -0.61614
                        -----------------------------------------
Magnitude (a.u.)       :      1.01237
Magnitude (Debye)      :      2.57325

Rotational constants in cm-1:     0.059289     0.013360     0.012292
Rotational constants in MHz :  1777.437241   400.520198   368.507390

                             ****ORCA TERMINATED NORMALLY****
TOTAL RUN TIME: 0 days 0 hours 29 minutes 8 seconds 17 msec
