                         Program Version 4.2.0 -  RELEASE  -
|  1> # Test redundant internal optimization
|  2> #
|  3> ! RKS B3LYP  Opt TightSCF SmallPrint
|  4>
|  5> %basis
|  6>         Basis "6-31G"
|  7> end
|  8>
|  9> %geom
| 10> Constraints
| 11> { D 4  0  15  12  120.0   C } # D for Dihedral angle
| 12> { D 0  15  12  16  90.0   C } # D for Dihedral angle
| 13> { D 0  4  3  2   C } # D for Dihedral angle
| 14> { D 4  3  2  1   C } # D for Dihedral angle
| 15> { D 3  2  1  0   C } # D for Dihedral angle
| 16> { D 2  1  0  4   C } # D for Dihedral angle
| 17> { D 1  0  4  3   C } # D for Dihedral angle
| 18> { D 16  20  19  18   C } # D for Dihedral angle
| 19> { D 20  19  18  17   C } # D for Dihedral angle
| 20> { D 19  18  17  16   C } # D for Dihedral angle
| 21> { D 18  17  16  20   C } # D for Dihedral angle
| 22> { D 17  16  20  19   C } # D for Dihedral angle
| 23> { D 15  12  16  20   C } # D for Dihedral angle
| 24> end
| 25> end
| 26>
| 27>
| 28> #%pal
| 29> #nprocs 8
| 30> #end
| 31>
| 32> * xyz 0 1
| 33> C  -21.048   26.222   46.251
| 34> C  -20.361   27.558   45.944
| 35> C  -20.329   28.222   47.341
| 36> C  -20.110   27.022   48.296
| 37> O  -20.473   25.807   47.535
| 38> H  -20.833   25.428   45.533
| 39> H  -19.344   27.382   45.576
| 40> H  -20.898   28.157   45.201
| 41> H  -19.543   28.978   47.434
| 42> H  -21.289   28.710   47.548
| 43> H  -20.733   27.082   49.195
| 44> H  -19.064   26.913   48.597
| 45> C  -23.119   27.818   46.058
| 46> H  -24.020   28.008   46.654
| 47> H  -22.369   28.576   46.319
| 48> O  -22.586   26.394   46.375
| 49> C  -23.477   28.005   44.557
| 50> C  -23.888   29.451   44.259
| 51> C  -22.514   30.158   44.179
| 52> C  -21.601   29.080   43.542
| 53> O  -22.295   27.785   43.717
| 54> H  -24.217   27.256   44.270
| 55> O  -24.624   29.525   42.893
| 56> H  -24.541   29.879   45.027
| 57> H  -22.545   31.079   43.589
| 58> H  -22.164   30.416   45.185
| 59> H  -20.617   29.027   44.023
| 60> H  -21.464   29.230   42.468
| 61> H  -23.987   29.102   42.109
| 62> *
| 63>
| 64>                          ****END OF INPUT****
 Total Charge           Charge          ....    0
 Multiplicity           Mult            ....    1
 Number of Electrons    NEL             ....  102
FINAL SINGLE POINT ENERGY      -652.803551090254
FINAL SINGLE POINT ENERGY      -652.834108919533
FINAL SINGLE POINT ENERGY      -652.848994920033
FINAL SINGLE POINT ENERGY      -652.851588011659
FINAL SINGLE POINT ENERGY      -652.852060548742
FINAL SINGLE POINT ENERGY      -652.852116259135
FINAL SINGLE POINT ENERGY      -652.852123558570
                    ***********************HURRAY********************

CARTESIAN COORDINATES (ANGSTROEM)
---------------------------------
  C    -21.094216   26.267470   46.333697
  C    -20.086965   27.392655   46.076095
  C    -20.006292   28.083385   47.466207
  C    -20.158586   26.888186   48.438422
  O    -20.739363   25.785340   47.645229
  H    -20.994854   25.413782   45.663399
  H    -19.124448   26.934421   45.824404
  H    -20.376869   28.046518   45.257322
  H    -19.060732   28.615198   47.611739
  H    -20.817723   28.806544   47.600872
  H    -20.816959   27.104855   49.284713
  H    -19.195017   26.534233   48.817009
  C    -23.089656   27.894476   46.015330
  H    -24.044674   27.902256   46.550831
  H    -22.477582   28.718466   46.406510
  O    -22.509117   26.601243   46.302285
  C    -23.369438   28.087042   44.520212
  C    -24.005257   29.432478   44.139534
  C    -22.755669   30.337050   43.981495
  C    -21.694853   29.375071   43.393396
  O    -22.178195   27.995211   43.667668
  H    -24.012256   27.258529   44.203573
  O    -24.754773   29.327731   42.899293
  H    -24.717737   29.808772   44.875325
  H    -22.972303   31.185467   43.327925
  H    -22.442565   30.724305   44.957687
  H    -20.705924   29.510764   43.842262
  H    -21.596201   29.466824   42.307581
  H    -24.254775   28.771729   42.264987

 Multiplicity           Mult            ....    1
 Number of Electrons    NEL             ....  102
 Basis Dimension        Dim             ....  149

ORBITAL ENERGIES
----------------

  NO   OCC          E(Eh)            E(eV)
   0   2.0000     -19.154050      -521.2082
   1   2.0000     -19.144400      -520.9456
   2   2.0000     -19.135131      -520.6934
   3   2.0000     -19.133514      -520.6494
   4   2.0000     -10.274785      -279.5911
   5   2.0000     -10.249696      -278.9084
   6   2.0000     -10.240646      -278.6622
   7   2.0000     -10.238653      -278.6079
   8   2.0000     -10.237667      -278.5811
   9   2.0000     -10.224179      -278.2141
  10   2.0000     -10.197704      -277.4936
  11   2.0000     -10.191847      -277.3342
  12   2.0000     -10.186082      -277.1774
  13   2.0000      -1.048591       -28.5336
  14   2.0000      -1.041203       -28.3326
  15   2.0000      -1.013401       -27.5760
  16   2.0000      -0.989314       -26.9206
  17   2.0000      -0.791864       -21.5477
  18   2.0000      -0.785813       -21.3831
  19   2.0000      -0.775185       -21.0938
  20   2.0000      -0.733637       -19.9633
  21   2.0000      -0.683691       -18.6042
  22   2.0000      -0.611918       -16.6511
  23   2.0000      -0.606048       -16.4914
  24   2.0000      -0.600983       -16.3536
  25   2.0000      -0.572507       -15.5787
  26   2.0000      -0.530239       -14.4285
  27   2.0000      -0.515585       -14.0298
  28   2.0000      -0.504911       -13.7393
  29   2.0000      -0.487154       -13.2561
  30   2.0000      -0.478984       -13.0338
  31   2.0000      -0.462883       -12.5957
  32   2.0000      -0.454762       -12.3747
  33   2.0000      -0.439618       -11.9626
  34   2.0000      -0.434082       -11.8120
  35   2.0000      -0.414185       -11.2705
  36   2.0000      -0.408154       -11.1064
  37   2.0000      -0.398828       -10.8527
  38   2.0000      -0.380300       -10.3485
  39   2.0000      -0.378841       -10.3088
  40   2.0000      -0.364302        -9.9132
  41   2.0000      -0.357417        -9.7258
  42   2.0000      -0.352781        -9.5997
  43   2.0000      -0.339625        -9.2417
  44   2.0000      -0.316288        -8.6066
  45   2.0000      -0.309344        -8.4177
  46   2.0000      -0.284609        -7.7446
  47   2.0000      -0.280043        -7.6204
  48   2.0000      -0.273360        -7.4385
  49   2.0000      -0.255090        -6.9414
  50   2.0000      -0.239556        -6.5186
  51   0.0000       0.053169         1.4468
  52   0.0000       0.073559         2.0016
  53   0.0000       0.083952         2.2844
  54   0.0000       0.092379         2.5138
  55   0.0000       0.098680         2.6852

MULLIKEN ATOMIC CHARGES
-----------------------
   0 C :    0.327414
   1 C :   -0.306055
   2 C :   -0.315591
   3 C :    0.000422
   4 O :   -0.496274
   5 H :    0.164316
   6 H :    0.152512
   7 H :    0.167109
   8 H :    0.142443
   9 H :    0.145362
  10 H :    0.145964
  11 H :    0.143152
  12 C :   -0.006702
  13 H :    0.156902
  14 H :    0.115524
  15 O :   -0.529558
  16 C :    0.067576
  17 C :    0.074753
  18 C :   -0.287830
  19 C :   -0.039622
  20 O :   -0.517832
  21 H :    0.172280
  22 O :   -0.599147
  23 H :    0.154651
  24 H :    0.166655
  25 H :    0.140884
  26 H :    0.139526
  27 H :    0.154433
  28 H :    0.366733
Sum of atomic charges:   -0.0000000

LOEWDIN ATOMIC CHARGES
----------------------
   0 C :    0.189239
   1 C :   -0.232829
   2 C :   -0.223824
   3 C :   -0.029944
   4 O :   -0.313215
   5 H :    0.111301
   6 H :    0.122273
   7 H :    0.124218
   8 H :    0.114299
   9 H :    0.104909
  10 H :    0.103941
  11 H :    0.102851
  12 C :   -0.036775
  13 H :    0.118774
  14 H :    0.087727
  15 O :   -0.327678
  16 C :    0.004230
  17 C :    0.035203
  18 C :   -0.239218
  19 C :   -0.042265
  20 O :   -0.328687
  21 H :    0.120583
  22 O :   -0.412056
  23 H :    0.116766
  24 H :    0.128948
  25 H :    0.111787
  26 H :    0.098599
  27 H :    0.106345
  28 H :    0.284497

  Mayer bond orders larger than 0.100000
B(  0-C ,  1-C ) :   0.9330 B(  0-C ,  4-O ) :   0.9142 B(  0-C ,  5-H ) :   0.9317
B(  0-C , 15-O ) :   0.8535 B(  1-C ,  2-C ) :   0.9502 B(  1-C ,  6-H ) :   0.9360
B(  1-C ,  7-H ) :   0.9081 B(  2-C ,  3-C ) :   0.9480 B(  2-C ,  8-H ) :   0.9460
B(  2-C ,  9-H ) :   0.9389 B(  3-C ,  4-O ) :   0.8491 B(  3-C , 10-H ) :   0.9347
B(  3-C , 11-H ) :   0.9392 B( 12-C , 13-H ) :   0.9268 B( 12-C , 14-H ) :   0.9086
B( 12-C , 15-O ) :   0.8678 B( 12-C , 16-C ) :   0.8834 B( 16-C , 17-C ) :   0.8914
B( 16-C , 20-O ) :   0.8557 B( 16-C , 21-H ) :   0.9231 B( 17-C , 18-C ) :   0.9108
B( 17-C , 22-O ) :   0.8961 B( 17-C , 23-H ) :   0.9338 B( 18-C , 19-C ) :   0.9419
B( 18-C , 24-H ) :   0.9365 B( 18-C , 25-H ) :   0.9343 B( 19-C , 20-O ) :   0.8455
B( 19-C , 26-H ) :   0.9246 B( 19-C , 27-H ) :   0.9382 B( 22-O , 28-H ) :   0.7936

FINAL SINGLE POINT ENERGY      -652.852123141148

DIPOLE MOMENT
-------------
                                X             Y             Z
Electronic contribution:     -3.95645      -5.46600      -1.77821
Nuclear contribution   :      4.85345       7.04279       1.73234
                        -----------------------------------------
Total Dipole Moment    :      0.89700       1.57680      -0.04587
                        -----------------------------------------
Magnitude (a.u.)       :      1.81466
Magnitude (Debye)      :      4.61251

Rotational constants in cm-1:     0.060493     0.014055     0.013152
Rotational constants in MHz :  1813.541893   421.352906   394.287152

                             ****ORCA TERMINATED NORMALLY****
TOTAL RUN TIME: 0 days 0 hours 25 minutes 59 seconds 324 msec
