                         Program Version 4.2.0 -  RELEASE  -
|  1> # Test redundant internal optimization
|  2> #
|  3> ! RKS B3LYP  Opt TightSCF SmallPrint
|  4>
|  5> %basis
|  6>         Basis "6-31G"
|  7> end
|  8>
|  9> %geom
| 10> Constraints
| 11> { D 4  0  15  12  285.0   C } # D for Dihedral angle
| 12> { D 0  15  12  16  60.0   C } # D for Dihedral angle
| 13> { D 0  4  3  2   C } # D for Dihedral angle
| 14> { D 4  3  2  1   C } # D for Dihedral angle
| 15> { D 3  2  1  0   C } # D for Dihedral angle
| 16> { D 2  1  0  4   C } # D for Dihedral angle
| 17> { D 1  0  4  3   C } # D for Dihedral angle
| 18> { D 16  20  19  18   C } # D for Dihedral angle
| 19> { D 20  19  18  17   C } # D for Dihedral angle
| 20> { D 19  18  17  16   C } # D for Dihedral angle
| 21> { D 18  17  16  20   C } # D for Dihedral angle
| 22> { D 17  16  20  19   C } # D for Dihedral angle
| 23> { D 15  12  16  20   C } # D for Dihedral angle
| 24> end
| 25> end
| 26>
| 27>
| 28> #%pal
| 29> #nprocs 8
| 30> #end
| 31>
| 32> * xyz 0 1
| 33> C  -21.048   26.222   46.251
| 34> C  -20.361   27.558   45.944
| 35> C  -20.329   28.222   47.341
| 36> C  -20.110   27.022   48.296
| 37> O  -20.473   25.807   47.535
| 38> H  -20.833   25.428   45.533
| 39> H  -19.344   27.382   45.576
| 40> H  -20.898   28.157   45.201
| 41> H  -19.543   28.978   47.434
| 42> H  -21.289   28.710   47.548
| 43> H  -20.733   27.082   49.195
| 44> H  -19.064   26.913   48.597
| 45> C  -23.396   25.070   46.435
| 46> H  -24.465   25.303   46.513
| 47> H  -23.238   24.482   45.522
| 48> O  -22.586   26.394   46.375
| 49> C  -23.001   24.179   47.646
| 50> C  -23.348   24.860   48.974
| 51> C  -24.869   24.592   49.076
| 52> C  -25.021   23.187   48.443
| 53> O  -23.794   22.945   47.654
| 54> H  -21.954   23.886   47.547
| 55> O  -22.590   24.168   50.140
| 56> H  -23.102   25.927   48.989
| 57> H  -25.238   24.628   50.106
| 58> H  -25.421   25.340   48.496
| 59> H  -25.892   23.117   47.782
| 60> H  -25.083   22.395   49.194
| 61> H  -22.821   23.097   50.147
| 62> *
| 63>
| 64>                          ****END OF INPUT****
 Total Charge           Charge          ....    0
 Multiplicity           Mult            ....    1
 Number of Electrons    NEL             ....  102
FINAL SINGLE POINT ENERGY      -652.841134239066
FINAL SINGLE POINT ENERGY      -652.863974978648
FINAL SINGLE POINT ENERGY      -652.867974140171
FINAL SINGLE POINT ENERGY      -652.868760113549
FINAL SINGLE POINT ENERGY      -652.868925373291
FINAL SINGLE POINT ENERGY      -652.868954349954
FINAL SINGLE POINT ENERGY      -652.868959573020
                    ***********************HURRAY********************

CARTESIAN COORDINATES (ANGSTROEM)
---------------------------------
  C    -21.051256   26.138773   46.279461
  C    -20.460704   27.512940   45.958743
  C    -20.458938   28.189633   47.349867
  C    -20.150264   27.017130   48.309474
  O    -20.445127   25.777408   47.542887
  H    -20.797715   25.336184   45.578186
  H    -19.440016   27.386694   45.580722
  H    -21.053930   28.050194   45.216412
  H    -19.719963   28.992931   47.427350
  H    -21.448611   28.607793   47.555587
  H    -20.761529   27.022554   49.214790
  H    -19.094349   26.963541   48.589596
  C    -23.272377   25.067564   46.448084
  H    -24.309533   25.410721   46.460347
  H    -23.121267   24.462675   45.542328
  O    -22.483367   26.294165   46.360394
  C    -22.968056   24.182685   47.666586
  C    -23.293628   24.826283   49.022142
  C    -24.833197   24.648998   49.092220
  C    -25.063167   23.284185   48.394254
  O    -23.836710   22.999737   47.608122
  H    -21.936073   23.830521   47.643220
  O    -22.625776   24.137013   50.113193
  H    -22.975557   25.865465   49.084889
  H    -25.172885   24.656261   50.130707
  H    -25.338041   25.461996   48.560127
  H    -25.924958   23.289954   47.719548
  H    -25.184320   22.463572   49.108106
  H    -22.622688   23.173430   49.932659

 Multiplicity           Mult            ....    1
 Number of Electrons    NEL             ....  102
 Basis Dimension        Dim             ....  149

ORBITAL ENERGIES
----------------

  NO   OCC          E(Eh)            E(eV)
   0   2.0000     -19.148481      -521.0566
   1   2.0000     -19.143046      -520.9088
   2   2.0000     -19.140740      -520.8460
   3   2.0000     -19.129852      -520.5497
   4   2.0000     -10.280264      -279.7402
   5   2.0000     -10.231742      -278.4199
   6   2.0000     -10.229797      -278.3669
   7   2.0000     -10.228121      -278.3213
   8   2.0000     -10.226088      -278.2660
   9   2.0000     -10.225338      -278.2456
  10   2.0000     -10.186077      -277.1772
  11   2.0000     -10.185906      -277.1726
  12   2.0000     -10.183384      -277.1040
  13   2.0000      -1.056252       -28.7421
  14   2.0000      -1.030973       -28.0542
  15   2.0000      -1.000404       -27.2224
  16   2.0000      -0.996382       -27.1129
  17   2.0000      -0.790189       -21.5021
  18   2.0000      -0.774142       -21.0655
  19   2.0000      -0.761510       -20.7217
  20   2.0000      -0.731434       -19.9033
  21   2.0000      -0.672464       -18.2987
  22   2.0000      -0.601052       -16.3555
  23   2.0000      -0.599125       -16.3030
  24   2.0000      -0.596612       -16.2346
  25   2.0000      -0.573640       -15.6095
  26   2.0000      -0.519659       -14.1406
  27   2.0000      -0.517936       -14.0938
  28   2.0000      -0.490305       -13.3419
  29   2.0000      -0.486571       -13.2403
  30   2.0000      -0.468346       -12.7444
  31   2.0000      -0.458050       -12.4642
  32   2.0000      -0.445310       -12.1175
  33   2.0000      -0.436681       -11.8827
  34   2.0000      -0.417988       -11.3740
  35   2.0000      -0.412483       -11.2242
  36   2.0000      -0.400314       -10.8931
  37   2.0000      -0.387525       -10.5451
  38   2.0000      -0.374640       -10.1945
  39   2.0000      -0.364518        -9.9190
  40   2.0000      -0.357427        -9.7261
  41   2.0000      -0.354455        -9.6452
  42   2.0000      -0.348915        -9.4945
  43   2.0000      -0.335562        -9.1311
  44   2.0000      -0.322779        -8.7833
  45   2.0000      -0.305864        -8.3230
  46   2.0000      -0.299354        -8.1458
  47   2.0000      -0.273606        -7.4452
  48   2.0000      -0.264679        -7.2023
  49   2.0000      -0.257975        -7.0198
  50   2.0000      -0.237365        -6.4590
  51   0.0000       0.069817         1.8998
  52   0.0000       0.077524         2.1095
  53   0.0000       0.094719         2.5774
  54   0.0000       0.099478         2.7069
  55   0.0000       0.106729         2.9042

MULLIKEN ATOMIC CHARGES
-----------------------
   0 C :    0.281604
   1 C :   -0.258705
   2 C :   -0.300971
   3 C :   -0.007510
   4 O :   -0.511202
   5 H :    0.144081
   6 H :    0.146562
   7 H :    0.157930
   8 H :    0.142656
   9 H :    0.161162
  10 H :    0.157326
  11 H :    0.145923
  12 C :   -0.017746
  13 H :    0.147357
  14 H :    0.143355
  15 O :   -0.516709
  16 C :    0.041337
  17 C :    0.105714
  18 C :   -0.301110
  19 C :   -0.030623
  20 O :   -0.529860
  21 H :    0.187283
  22 O :   -0.607008
  23 H :    0.159413
  24 H :    0.160454
  25 H :    0.145019
  26 H :    0.143674
  27 H :    0.147303
  28 H :    0.363289
Sum of atomic charges:   -0.0000000

LOEWDIN ATOMIC CHARGES
----------------------
   0 C :    0.169010
   1 C :   -0.213442
   2 C :   -0.216276
   3 C :   -0.027908
   4 O :   -0.326411
   5 H :    0.096769
   6 H :    0.114858
   7 H :    0.124621
   8 H :    0.114331
   9 H :    0.118349
  10 H :    0.108772
  11 H :    0.104791
  12 C :   -0.041161
  13 H :    0.111070
  14 H :    0.102099
  15 O :   -0.325213
  16 C :    0.001187
  17 C :    0.041896
  18 C :   -0.242577
  19 C :   -0.038591
  20 O :   -0.332220
  21 H :    0.125848
  22 O :   -0.414603
  23 H :    0.118011
  24 H :    0.126044
  25 H :    0.112950
  26 H :    0.102284
  27 H :    0.103283
  28 H :    0.282227

  Mayer bond orders larger than 0.100000
B(  0-C ,  1-C ) :   0.9508 B(  0-C ,  4-O ) :   0.8976 B(  0-C ,  5-H ) :   0.9180
B(  0-C , 15-O ) :   0.8624 B(  1-C ,  2-C ) :   0.9561 B(  1-C ,  6-H ) :   0.9403
B(  1-C ,  7-H ) :   0.9366 B(  2-C ,  3-C ) :   0.9536 B(  2-C ,  8-H ) :   0.9451
B(  2-C ,  9-H ) :   0.9447 B(  3-C ,  4-O ) :   0.8301 B(  3-C , 10-H ) :   0.9303
B(  3-C , 11-H ) :   0.9407 B( 12-C , 13-H ) :   0.9418 B( 12-C , 14-H ) :   0.9204
B( 12-C , 15-O ) :   0.8430 B( 12-C , 16-C ) :   0.8817 B( 16-C , 17-C ) :   0.9137
B( 16-C , 20-O ) :   0.8208 B( 16-C , 21-H ) :   0.9149 B( 17-C , 18-C ) :   0.9079
B( 17-C , 22-O ) :   0.8889 B( 17-C , 23-H ) :   0.9263 B( 18-C , 19-C ) :   0.9439
B( 18-C , 24-H ) :   0.9379 B( 18-C , 25-H ) :   0.9347 B( 19-C , 20-O ) :   0.8457
B( 19-C , 26-H ) :   0.9356 B( 19-C , 27-H ) :   0.9383 B( 22-O , 28-H ) :   0.7961

FINAL SINGLE POINT ENERGY      -652.868960839808

DIPOLE MOMENT
-------------
                                X             Y             Z
Electronic contribution:      0.52172      -4.11419      -0.18351
Nuclear contribution   :     -0.74118       4.76953      -0.17081
                        -----------------------------------------
Total Dipole Moment    :     -0.21946       0.65534      -0.35432
                        -----------------------------------------
Magnitude (a.u.)       :      0.77664
Magnitude (Debye)      :      1.97407

Rotational constants in cm-1:     0.052954     0.015926     0.014127
Rotational constants in MHz :  1587.532558   477.459210   423.524914

                             ****ORCA TERMINATED NORMALLY****
TOTAL RUN TIME: 0 days 1 hours 49 minutes 48 seconds 733 msec
