                         Program Version 4.2.0 -  RELEASE  -
|  1> # Test redundant internal optimization
|  2> #
|  3> ! RKS B3LYP  Opt TightSCF SmallPrint
|  4>
|  5> %basis
|  6>         Basis "6-31G"
|  7> end
|  8>
|  9> %geom
| 10> Constraints
| 11> { D 4  0  15  12  270.0   C } # D for Dihedral angle
| 12> { D 0  15  12  16  75.0   C } # D for Dihedral angle
| 13> { D 0  4  3  2   C } # D for Dihedral angle
| 14> { D 4  3  2  1   C } # D for Dihedral angle
| 15> { D 3  2  1  0   C } # D for Dihedral angle
| 16> { D 2  1  0  4   C } # D for Dihedral angle
| 17> { D 1  0  4  3   C } # D for Dihedral angle
| 18> { D 16  20  19  18   C } # D for Dihedral angle
| 19> { D 20  19  18  17   C } # D for Dihedral angle
| 20> { D 19  18  17  16   C } # D for Dihedral angle
| 21> { D 18  17  16  20   C } # D for Dihedral angle
| 22> { D 17  16  20  19   C } # D for Dihedral angle
| 23> { D 15  12  16  20   C } # D for Dihedral angle
| 24> end
| 25> end
| 26>
| 27>
| 28> #%pal
| 29> #nprocs 8
| 30> #end
| 31>
| 32> * xyz 0 1
| 33> C  -21.048   26.222   46.251
| 34> C  -20.361   27.558   45.944
| 35> C  -20.329   28.222   47.341
| 36> C  -20.110   27.022   48.296
| 37> O  -20.473   25.807   47.535
| 38> H  -20.833   25.428   45.533
| 39> H  -19.344   27.382   45.576
| 40> H  -20.898   28.157   45.201
| 41> H  -19.543   28.978   47.434
| 42> H  -21.289   28.710   47.548
| 43> H  -20.733   27.082   49.195
| 44> H  -19.064   26.913   48.597
| 45> C  -23.420   25.119   46.072
| 46> H  -24.468   25.401   45.914
| 47> H  -23.055   24.629   45.160
| 48> O  -22.586   26.394   46.375
| 49> C  -23.362   24.077   47.223
| 50> C  -24.011   24.622   48.500
| 51> C  -25.516   24.430   48.194
| 52> C  -25.543   23.115   47.375
| 53> O  -24.165   22.896   46.886
| 54> H  -22.332   23.738   47.348
| 55> H  -23.712   24.015   49.363
| 56> O  -23.639   26.102   48.791
| 57> H  -26.129   24.370   49.099
| 58> H  -25.887   25.268   47.593
| 59> H  -26.223   23.169   46.518
| 60> H  -25.810   22.248   47.985
| 61> H  -23.930   26.727   47.940
| 62> *
| 63>
| 64>                          ****END OF INPUT****
 Total Charge           Charge          ....    0
 Multiplicity           Mult            ....    1
 Number of Electrons    NEL             ....  102
FINAL SINGLE POINT ENERGY      -652.835995477481
FINAL SINGLE POINT ENERGY      -652.861683009942
FINAL SINGLE POINT ENERGY      -652.867827840896
FINAL SINGLE POINT ENERGY      -652.870013211667
FINAL SINGLE POINT ENERGY      -652.871115198462
FINAL SINGLE POINT ENERGY      -652.871654264365
FINAL SINGLE POINT ENERGY      -652.871785408954
FINAL SINGLE POINT ENERGY      -652.871806699883
                    ***********************HURRAY********************

CARTESIAN COORDINATES (ANGSTROEM)
---------------------------------
  C    -21.074318   26.137696   46.233980
  C    -20.458695   27.509768   45.959698
  C    -20.522592   28.172584   47.356420
  C    -20.271769   26.988025   48.317143
  O    -20.538524   25.760118   47.516351
  H    -20.827005   25.342550   45.526153
  H    -19.420186   27.378663   45.635117
  H    -21.005319   28.060798   45.192014
  H    -19.780012   28.966942   47.476905
  H    -21.514229   28.605664   47.519336
  H    -20.944099   26.976706   49.177393
  H    -19.233364   26.921609   48.652140
  C    -23.334245   25.120203   46.012298
  H    -24.337359   25.502500   45.808599
  H    -22.962983   24.614860   45.112070
  O    -22.519944   26.313018   46.291417
  C    -23.322924   24.142221   47.197600
  C    -23.949755   24.697547   48.488307
  C    -25.471140   24.525988   48.200595
  C    -25.526611   23.217391   47.384840
  O    -24.144373   22.976979   46.872280
  H    -22.307078   23.777954   47.365697
  H    -23.658111   24.060455   49.329254
  O    -23.584056   26.051481   48.838824
  H    -26.054390   24.476215   49.123453
  H    -25.826193   25.388461   47.626837
  H    -26.213627   23.263282   46.533952
  H    -25.784935   22.350001   47.999339
  H    -23.225163   26.501323   48.038988

 Multiplicity           Mult            ....    1
 Number of Electrons    NEL             ....  102
 Basis Dimension        Dim             ....  149

ORBITAL ENERGIES
----------------

  NO   OCC          E(Eh)            E(eV)
   0   2.0000     -19.164806      -521.5009
   1   2.0000     -19.147944      -521.0420
   2   2.0000     -19.137600      -520.7606
   3   2.0000     -19.116831      -520.1954
   4   2.0000     -10.290176      -280.0099
   5   2.0000     -10.238028      -278.5909
   6   2.0000     -10.229017      -278.3457
   7   2.0000     -10.228262      -278.3252
   8   2.0000     -10.227153      -278.2950
   9   2.0000     -10.224861      -278.2326
  10   2.0000     -10.192151      -277.3425
  11   2.0000     -10.190584      -277.2999
  12   2.0000     -10.177974      -276.9568
  13   2.0000      -1.065856       -29.0034
  14   2.0000      -1.022387       -27.8206
  15   2.0000      -1.005574       -27.3631
  16   2.0000      -0.993480       -27.0340
  17   2.0000      -0.794484       -21.6190
  18   2.0000      -0.769472       -20.9384
  19   2.0000      -0.764098       -20.7922
  20   2.0000      -0.735348       -20.0098
  21   2.0000      -0.677476       -18.4351
  22   2.0000      -0.605059       -16.4645
  23   2.0000      -0.600397       -16.3376
  24   2.0000      -0.593896       -16.1607
  25   2.0000      -0.580006       -15.7828
  26   2.0000      -0.524703       -14.2779
  27   2.0000      -0.522110       -14.2073
  28   2.0000      -0.493908       -13.4399
  29   2.0000      -0.487046       -13.2532
  30   2.0000      -0.467769       -12.7286
  31   2.0000      -0.455314       -12.3897
  32   2.0000      -0.444755       -12.1024
  33   2.0000      -0.436765       -11.8850
  34   2.0000      -0.422872       -11.5069
  35   2.0000      -0.408829       -11.1248
  36   2.0000      -0.407481       -11.0881
  37   2.0000      -0.388333       -10.5671
  38   2.0000      -0.381172       -10.3722
  39   2.0000      -0.364267        -9.9122
  40   2.0000      -0.361841        -9.8462
  41   2.0000      -0.355567        -9.6755
  42   2.0000      -0.349849        -9.5199
  43   2.0000      -0.338938        -9.2230
  44   2.0000      -0.333740        -9.0815
  45   2.0000      -0.316401        -8.6097
  46   2.0000      -0.295027        -8.0281
  47   2.0000      -0.278255        -7.5717
  48   2.0000      -0.263855        -7.1799
  49   2.0000      -0.247026        -6.7219
  50   2.0000      -0.237822        -6.4715
  51   0.0000       0.058795         1.5999
  52   0.0000       0.084781         2.3070
  53   0.0000       0.095053         2.5865
  54   0.0000       0.098963         2.6929
  55   0.0000       0.104316         2.8386

MULLIKEN ATOMIC CHARGES
-----------------------
   0 C :    0.278252
   1 C :   -0.253668
   2 C :   -0.306766
   3 C :   -0.020926
   4 O :   -0.506648
   5 H :    0.153628
   6 H :    0.149863
   7 H :    0.156749
   8 H :    0.146846
   9 H :    0.162342
  10 H :    0.176023
  11 H :    0.145326
  12 C :   -0.047834
  13 H :    0.158271
  14 H :    0.153549
  15 O :   -0.537376
  16 C :    0.056405
  17 C :    0.115145
  18 C :   -0.304539
  19 C :   -0.020361
  20 O :   -0.524477
  21 H :    0.180877
  22 H :    0.150247
  23 O :   -0.640418
  24 H :    0.152507
  25 H :    0.144171
  26 H :    0.141892
  27 H :    0.148021
  28 H :    0.392901
Sum of atomic charges:   -0.0000000

LOEWDIN ATOMIC CHARGES
----------------------
   0 C :    0.170014
   1 C :   -0.214651
   2 C :   -0.216886
   3 C :   -0.032711
   4 O :   -0.323008
   5 H :    0.104754
   6 H :    0.116620
   7 H :    0.123860
   8 H :    0.116745
   9 H :    0.118004
  10 H :    0.118683
  11 H :    0.105300
  12 C :   -0.047234
  13 H :    0.114032
  14 H :    0.108489
  15 O :   -0.332038
  16 C :    0.004843
  17 C :    0.043649
  18 C :   -0.238348
  19 C :   -0.033315
  20 O :   -0.326026
  21 H :    0.123755
  22 H :    0.108372
  23 O :   -0.433442
  24 H :    0.121607
  25 H :    0.110319
  26 H :    0.101466
  27 H :    0.105519
  28 H :    0.281627

  Mayer bond orders larger than 0.100000
B(  0-C ,  1-C ) :   0.9506 B(  0-C ,  4-O ) :   0.9246 B(  0-C ,  5-H ) :   0.9177
B(  0-C , 15-O ) :   0.8110 B(  1-C ,  2-C ) :   0.9532 B(  1-C ,  6-H ) :   0.9385
B(  1-C ,  7-H ) :   0.9365 B(  2-C ,  3-C ) :   0.9524 B(  2-C ,  8-H ) :   0.9452
B(  2-C ,  9-H ) :   0.9442 B(  3-C ,  4-O ) :   0.8211 B(  3-C , 10-H ) :   0.9235
B(  3-C , 11-H ) :   0.9398 B( 12-C , 13-H ) :   0.9396 B( 12-C , 14-H ) :   0.9277
B( 12-C , 15-O ) :   0.8080 B( 12-C , 16-C ) :   0.8819 B( 16-C , 17-C ) :   0.9137
B( 16-C , 20-O ) :   0.8423 B( 16-C , 21-H ) :   0.9205 B( 17-C , 18-C ) :   0.9023
B( 17-C , 22-H ) :   0.9333 B( 17-C , 23-O ) :   0.9262 B( 18-C , 19-C ) :   0.9408
B( 18-C , 24-H ) :   0.9441 B( 18-C , 25-H ) :   0.9436 B( 19-C , 20-O ) :   0.8344
B( 19-C , 26-H ) :   0.9340 B( 19-C , 27-H ) :   0.9388 B( 23-O , 28-H ) :   0.7189

FINAL SINGLE POINT ENERGY      -652.871808596465

DIPOLE MOMENT
-------------
                                X             Y             Z
Electronic contribution:      0.46262      -3.08635      -0.22960
Nuclear contribution   :     -0.27959       3.75596      -0.46112
                        -----------------------------------------
Total Dipole Moment    :      0.18303       0.66961      -0.69072
                        -----------------------------------------
Magnitude (a.u.)       :      0.97928
Magnitude (Debye)      :      2.48913

Rotational constants in cm-1:     0.059518     0.015451     0.014199
Rotational constants in MHz :  1784.314503   463.214088   425.684356

                             ****ORCA TERMINATED NORMALLY****
TOTAL RUN TIME: 0 days 0 hours 33 minutes 54 seconds 938 msec
