                         Program Version 4.2.0 -  RELEASE  -
|  1> # Test redundant internal optimization
|  2> #
|  3> ! RKS B3LYP  Opt TightSCF SmallPrint
|  4>
|  5> %basis
|  6>         Basis "6-31G"
|  7> end
|  8>
|  9> %geom
| 10> Constraints
| 11> { D 4  0  15  12  300.0   C } # D for Dihedral angle
| 12> { D 0  15  12  16  210.0   C } # D for Dihedral angle
| 13> { D 0  4  3  2   C } # D for Dihedral angle
| 14> { D 4  3  2  1   C } # D for Dihedral angle
| 15> { D 3  2  1  0   C } # D for Dihedral angle
| 16> { D 2  1  0  4   C } # D for Dihedral angle
| 17> { D 1  0  4  3   C } # D for Dihedral angle
| 18> { D 16  20  19  18   C } # D for Dihedral angle
| 19> { D 20  19  18  17   C } # D for Dihedral angle
| 20> { D 19  18  17  16   C } # D for Dihedral angle
| 21> { D 18  17  16  20   C } # D for Dihedral angle
| 22> { D 17  16  20  19   C } # D for Dihedral angle
| 23> { D 15  12  16  20   C } # D for Dihedral angle
| 24> end
| 25> end
| 26>
| 27>
| 28> #%pal
| 29> #nprocs 8
| 30> #end
| 31>
| 32> * xyz 0 1
| 33> C  -21.048   26.222   46.251
| 34> C  -20.361   27.558   45.944
| 35> C  -20.329   28.222   47.341
| 36> C  -20.110   27.022   48.296
| 37> O  -20.473   25.807   47.535
| 38> H  -20.833   25.428   45.533
| 39> H  -19.344   27.382   45.576
| 40> H  -20.898   28.157   45.201
| 41> H  -19.543   28.978   47.434
| 42> H  -21.289   28.710   47.548
| 43> H  -20.733   27.082   49.195
| 44> H  -19.064   26.913   48.597
| 45> C  -23.362   25.116   46.798
| 46> H  -22.821   24.230   46.442
| 47> H  -23.436   25.056   47.891
| 48> O  -22.586   26.394   46.375
| 49> C  -24.805   25.072   46.223
| 50> C  -25.595   26.328   46.607
| 51> C  -25.056   27.361   45.587
| 52> C  -24.818   26.509   44.316
| 53> O  -24.774   25.097   44.757
| 54> H  -25.278   24.133   46.517
| 55> H  -26.667   26.158   46.454
| 56> O  -25.372   26.764   48.080
| 57> H  -25.752   28.187   45.411
| 58> H  -24.113   27.788   45.948
| 59> H  -23.877   26.758   43.814
| 60> H  -25.637   26.595   43.596
| 61> H  -24.305   26.940   48.255
| 62> *
| 63>
| 64>                          ****END OF INPUT****
 Total Charge           Charge          ....    0
 Multiplicity           Mult            ....    1
 Number of Electrons    NEL             ....  102
FINAL SINGLE POINT ENERGY      -652.838624019323
FINAL SINGLE POINT ENERGY      -652.862832534118
FINAL SINGLE POINT ENERGY      -652.867314930572
FINAL SINGLE POINT ENERGY      -652.868733587571
FINAL SINGLE POINT ENERGY      -652.868850260369
FINAL SINGLE POINT ENERGY      -652.868869181410
FINAL SINGLE POINT ENERGY      -652.868869663092
                    ***********************HURRAY********************

CARTESIAN COORDINATES (ANGSTROEM)
---------------------------------
  C    -21.064991   26.148498   46.279326
  C    -20.431394   27.503316   45.963342
  C    -20.391160   28.166148   47.358747
  C    -20.112754   26.976979   48.305674
  O    -20.458253   25.754403   47.532935
  H    -20.853852   25.338173   45.574316
  H    -19.420495   27.342201   45.573176
  H    -21.008446   28.070421   45.229873
  H    -19.624395   28.943348   47.433923
  H    -21.361889   28.619974   47.580425
  H    -20.714426   27.001482   49.217914
  H    -19.056466   26.887063   48.574845
  C    -23.235747   25.146832   46.811911
  H    -22.711675   24.249793   46.458172
  H    -23.283710   25.105063   47.905987
  O    -22.491493   26.334504   46.389159
  C    -24.643304   25.149123   46.227520
  C    -25.523893   26.346943   46.621275
  C    -25.107417   27.414426   45.562298
  C    -24.846619   26.557841   44.304984
  O    -24.669277   25.158310   44.771368
  H    -25.109463   24.205389   46.536628
  H    -26.578951   26.082278   46.525076
  O    -25.369331   26.776449   47.995770
  H    -25.886126   28.167016   45.407192
  H    -24.189770   27.902731   45.897727
  H    -23.945890   26.864383   43.765415
  H    -25.696482   26.555115   43.614415
  H    -24.491329   27.198799   48.102609

 Multiplicity           Mult            ....    1
 Number of Electrons    NEL             ....  102
 Basis Dimension        Dim             ....  149

ORBITAL ENERGIES
----------------

  NO   OCC          E(Eh)            E(eV)
   0   2.0000     -19.153379      -521.1899
   1   2.0000     -19.146767      -521.0100
   2   2.0000     -19.138828      -520.7940
   3   2.0000     -19.132535      -520.6227
   4   2.0000     -10.284328      -279.8508
   5   2.0000     -10.235235      -278.5149
   6   2.0000     -10.231822      -278.4220
   7   2.0000     -10.228658      -278.3359
   8   2.0000     -10.228071      -278.3200
   9   2.0000     -10.221468      -278.1403
  10   2.0000     -10.192952      -277.3643
  11   2.0000     -10.192219      -277.3444
  12   2.0000     -10.178517      -276.9715
  13   2.0000      -1.061481       -28.8844
  14   2.0000      -1.026012       -27.9192
  15   2.0000      -1.008601       -27.4454
  16   2.0000      -0.997904       -27.1544
  17   2.0000      -0.795337       -21.6422
  18   2.0000      -0.771736       -21.0000
  19   2.0000      -0.764856       -20.8128
  20   2.0000      -0.733952       -19.9719
  21   2.0000      -0.676402       -18.4058
  22   2.0000      -0.606088       -16.4925
  23   2.0000      -0.600783       -16.3481
  24   2.0000      -0.596668       -16.2362
  25   2.0000      -0.570596       -15.5267
  26   2.0000      -0.527330       -14.3494
  27   2.0000      -0.510950       -13.9036
  28   2.0000      -0.497752       -13.5445
  29   2.0000      -0.491524       -13.3750
  30   2.0000      -0.465848       -12.6764
  31   2.0000      -0.462994       -12.5987
  32   2.0000      -0.445460       -12.1216
  33   2.0000      -0.425899       -11.5893
  34   2.0000      -0.420752       -11.4492
  35   2.0000      -0.416416       -11.3313
  36   2.0000      -0.404366       -11.0034
  37   2.0000      -0.397486       -10.8162
  38   2.0000      -0.385185       -10.4814
  39   2.0000      -0.364457        -9.9174
  40   2.0000      -0.363557        -9.8929
  41   2.0000      -0.355239        -9.6665
  42   2.0000      -0.349256        -9.5037
  43   2.0000      -0.336042        -9.1442
  44   2.0000      -0.321622        -8.7518
  45   2.0000      -0.307675        -8.3723
  46   2.0000      -0.303138        -8.2488
  47   2.0000      -0.276863        -7.5338
  48   2.0000      -0.262078        -7.1315
  49   2.0000      -0.259262        -7.0549
  50   2.0000      -0.237981        -6.4758
  51   0.0000       0.057742         1.5712
  52   0.0000       0.083625         2.2755
  53   0.0000       0.088837         2.4174
  54   0.0000       0.099375         2.7041
  55   0.0000       0.105148         2.8612

MULLIKEN ATOMIC CHARGES
-----------------------
   0 C :    0.292093
   1 C :   -0.265711
   2 C :   -0.299480
   3 C :   -0.006736
   4 O :   -0.512072
   5 H :    0.156118
   6 H :    0.150645
   7 H :    0.155931
   8 H :    0.146018
   9 H :    0.151556
  10 H :    0.146193
  11 H :    0.147665
  12 C :   -0.011210
  13 H :    0.149262
  14 H :    0.151220
  15 O :   -0.541967
  16 C :    0.092237
  17 C :    0.083961
  18 C :   -0.310582
  19 C :   -0.005575
  20 O :   -0.523416
  21 H :    0.147830
  22 H :    0.161853
  23 O :   -0.608298
  24 H :    0.143532
  25 H :    0.162941
  26 H :    0.141232
  27 H :    0.141642
  28 H :    0.363117
Sum of atomic charges:    0.0000000

LOEWDIN ATOMIC CHARGES
----------------------
   0 C :    0.173942
   1 C :   -0.214594
   2 C :   -0.216366
   3 C :   -0.028966
   4 O :   -0.328736
   5 H :    0.101844
   6 H :    0.117401
   7 H :    0.123096
   8 H :    0.115764
   9 H :    0.113060
  10 H :    0.104672
  11 H :    0.105380
  12 C :   -0.045302
  13 H :    0.110421
  14 H :    0.107839
  15 O :   -0.337855
  16 C :    0.017569
  17 C :    0.037272
  18 C :   -0.243356
  19 C :   -0.025775
  20 O :   -0.324497
  21 H :    0.114276
  22 H :    0.116147
  23 O :   -0.412186
  24 H :    0.114792
  25 H :    0.119942
  26 H :    0.102258
  27 H :    0.100613
  28 H :    0.281346

  Mayer bond orders larger than 0.100000
B(  0-C ,  1-C ) :   0.9514 B(  0-C ,  4-O ) :   0.8988 B(  0-C ,  5-H ) :   0.9174
B(  0-C , 15-O ) :   0.8520 B(  1-C ,  2-C ) :   0.9546 B(  1-C ,  6-H ) :   0.9390
B(  1-C ,  7-H ) :   0.9363 B(  2-C ,  3-C ) :   0.9546 B(  2-C ,  8-H ) :   0.9448
B(  2-C ,  9-H ) :   0.9463 B(  3-C ,  4-O ) :   0.8373 B(  3-C , 10-H ) :   0.9357
B(  3-C , 11-H ) :   0.9401 B( 12-C , 13-H ) :   0.9212 B( 12-C , 14-H ) :   0.9096
B( 12-C , 15-O ) :   0.8163 B( 12-C , 16-C ) :   0.9092 B( 16-C , 17-C ) :   0.8870
B( 16-C , 20-O ) :   0.8755 B( 16-C , 21-H ) :   0.9285 B( 17-C , 18-C ) :   0.9325
B( 17-C , 22-H ) :   0.9362 B( 17-C , 23-O ) :   0.9007 B( 18-C , 19-C ) :   0.9457
B( 18-C , 24-H ) :   0.9412 B( 18-C , 25-H ) :   0.9274 B( 19-C , 20-O ) :   0.8389
B( 19-C , 26-H ) :   0.9330 B( 19-C , 27-H ) :   0.9377 B( 23-O , 28-H ) :   0.7927

FINAL SINGLE POINT ENERGY      -652.868868073059

DIPOLE MOMENT
-------------
                                X             Y             Z
Electronic contribution:     -2.35984      -4.49786       0.22874
Nuclear contribution   :      3.15871       5.51427      -0.36505
                        -----------------------------------------
Total Dipole Moment    :      0.79887       1.01640      -0.13631
                        -----------------------------------------
Magnitude (a.u.)       :      1.29994
Magnitude (Debye)      :      3.30419

Rotational constants in cm-1:     0.046826     0.015615     0.014931
Rotational constants in MHz :  1403.798238   468.114865   447.612659

                             ****ORCA TERMINATED NORMALLY****
TOTAL RUN TIME: 0 days 0 hours 24 minutes 50 seconds 156 msec
