                         Program Version 4.2.0 -  RELEASE  -
|  1> # Test redundant internal optimization
|  2> #
|  3> ! RKS B3LYP  Opt TightSCF SmallPrint
|  4>
|  5> %basis
|  6>         Basis "6-31G"
|  7> end
|  8>
|  9> %geom
| 10> Constraints
| 11> { D 4  0  15  12  105.0   C } # D for Dihedral angle
| 12> { D 0  15  12  16  180.0   C } # D for Dihedral angle
| 13> { D 0  4  3  2   C } # D for Dihedral angle
| 14> { D 4  3  2  1   C } # D for Dihedral angle
| 15> { D 3  2  1  0   C } # D for Dihedral angle
| 16> { D 2  1  0  4   C } # D for Dihedral angle
| 17> { D 1  0  4  3   C } # D for Dihedral angle
| 18> { D 16  20  19  18   C } # D for Dihedral angle
| 19> { D 20  19  18  17   C } # D for Dihedral angle
| 20> { D 19  18  17  16   C } # D for Dihedral angle
| 21> { D 18  17  16  20   C } # D for Dihedral angle
| 22> { D 17  16  20  19   C } # D for Dihedral angle
| 23> { D 15  12  16  20   C } # D for Dihedral angle
| 24> end
| 25> end
| 26>
| 27>
| 28> #%pal
| 29> #nprocs 8
| 30> #end
| 31>
| 32> * xyz 0 1
| 33> C  -21.048   26.222   46.251
| 34> C  -20.361   27.558   45.944
| 35> C  -20.329   28.222   47.341
| 36> C  -20.110   27.022   48.296
| 37> O  -20.473   25.807   47.535
| 38> H  -20.833   25.428   45.533
| 39> H  -19.344   27.382   45.576
| 40> H  -20.898   28.157   45.201
| 41> H  -19.543   28.978   47.434
| 42> H  -21.289   28.710   47.548
| 43> H  -20.733   27.082   49.195
| 44> H  -19.064   26.913   48.597
| 45> C  -23.085   27.864   46.420
| 46> H  -22.633   28.373   47.281
| 47> H  -22.785   28.400   45.510
| 48> O  -22.586   26.394   46.375
| 49> C  -24.630   27.971   46.545
| 50> C  -25.333   27.203   45.420
| 51> C  -25.239   25.745   45.930
| 52> C  -25.379   25.899   47.465
| 53> O  -25.092   27.317   47.773
| 54> H  -24.911   29.023   46.617
| 55> O  -26.816   27.651   45.315
| 56> H  -24.860   27.342   44.441
| 57> H  -26.010   25.095   45.503
| 58> H  -24.262   25.318   45.672
| 59> H  -24.680   25.262   48.016
| 60> H  -26.395   25.693   47.814
| 61> H  -27.310   27.520   46.284
| 62> *
| 63>
| 64>                          ****END OF INPUT****
 Total Charge           Charge          ....    0
 Multiplicity           Mult            ....    1
 Number of Electrons    NEL             ....  102
FINAL SINGLE POINT ENERGY      -652.814952712284
FINAL SINGLE POINT ENERGY      -652.840900483494
FINAL SINGLE POINT ENERGY      -652.854014831771
FINAL SINGLE POINT ENERGY      -652.856223413314
FINAL SINGLE POINT ENERGY      -652.856549533027
FINAL SINGLE POINT ENERGY      -652.856595054091
FINAL SINGLE POINT ENERGY      -652.856599751856
                    ***********************HURRAY********************

CARTESIAN COORDINATES (ANGSTROEM)
---------------------------------
  C    -21.193621   26.381001   46.379794
  C    -20.273968   27.534225   45.959259
  C    -20.029486   28.265057   47.310301
  C    -20.000334   27.093984   48.323941
  O    -20.644608   25.945807   47.641114
  H    -21.129122   25.508713   45.727193
  H    -19.340994   27.105559   45.580029
  H    -20.694508   28.178984   45.182692
  H    -19.090637   28.827526   47.309358
  H    -20.835355   28.968930   47.532630
  H    -20.545665   27.310302   49.246751
  H    -18.981984   26.782711   48.573181
  C    -23.186839   27.969221   46.480756
  H    -22.849918   28.513252   47.371351
  H    -22.902942   28.543374   45.586288
  O    -22.618751   26.633442   46.452500
  C    -24.710863   27.875318   46.558724
  C    -25.423395   27.147968   45.409185
  C    -25.310831   25.664554   45.854144
  C    -25.432245   25.754072   47.395113
  O    -25.150909   27.165741   47.756636
  H    -25.091295   28.901026   46.640178
  O    -26.805322   27.594207   45.305130
  H    -24.986934   27.339654   44.428140
  H    -26.102935   25.063998   45.397661
  H    -24.334933   25.271000   45.569324
  H    -24.708090   25.115672   47.906190
  H    -26.439457   25.525843   47.758555
  H    -27.215059   27.569858   46.195881

 Multiplicity           Mult            ....    1
 Number of Electrons    NEL             ....  102
 Basis Dimension        Dim             ....  149

ORBITAL ENERGIES
----------------

  NO   OCC          E(Eh)            E(eV)
   0   2.0000     -19.148017      -521.0440
   1   2.0000     -19.141583      -520.8690
   2   2.0000     -19.134372      -520.6727
   3   2.0000     -19.132751      -520.6286
   4   2.0000     -10.284143      -279.8457
   5   2.0000     -10.237574      -278.5786
   6   2.0000     -10.234318      -278.4900
   7   2.0000     -10.233432      -278.4659
   8   2.0000     -10.229915      -278.3701
   9   2.0000     -10.217078      -278.0208
  10   2.0000     -10.198944      -277.5274
  11   2.0000     -10.197060      -277.4761
  12   2.0000     -10.171666      -276.7851
  13   2.0000      -1.054676       -28.6992
  14   2.0000      -1.029929       -28.0258
  15   2.0000      -1.003221       -27.2990
  16   2.0000      -0.994706       -27.0673
  17   2.0000      -0.793732       -21.5985
  18   2.0000      -0.779744       -21.2179
  19   2.0000      -0.762097       -20.7377
  20   2.0000      -0.735049       -20.0017
  21   2.0000      -0.678629       -18.4664
  22   2.0000      -0.609553       -16.5868
  23   2.0000      -0.602244       -16.3879
  24   2.0000      -0.593436       -16.1482
  25   2.0000      -0.568468       -15.4688
  26   2.0000      -0.524716       -14.2782
  27   2.0000      -0.510854       -13.9011
  28   2.0000      -0.504495       -13.7280
  29   2.0000      -0.483149       -13.1472
  30   2.0000      -0.475114       -12.9285
  31   2.0000      -0.457648       -12.4532
  32   2.0000      -0.448844       -12.2137
  33   2.0000      -0.433919       -11.8075
  34   2.0000      -0.427982       -11.6460
  35   2.0000      -0.417838       -11.3700
  36   2.0000      -0.404268       -11.0007
  37   2.0000      -0.388196       -10.5633
  38   2.0000      -0.383035       -10.4229
  39   2.0000      -0.365200        -9.9376
  40   2.0000      -0.362929        -9.8758
  41   2.0000      -0.358968        -9.7680
  42   2.0000      -0.351160        -9.5555
  43   2.0000      -0.326374        -8.8811
  44   2.0000      -0.316292        -8.6068
  45   2.0000      -0.302753        -8.2383
  46   2.0000      -0.294618        -8.0170
  47   2.0000      -0.273954        -7.4547
  48   2.0000      -0.262287        -7.1372
  49   2.0000      -0.256277        -6.9737
  50   2.0000      -0.239237        -6.5100
  51   0.0000       0.065642         1.7862
  52   0.0000       0.076368         2.0781
  53   0.0000       0.087954         2.3933
  54   0.0000       0.101918         2.7733
  55   0.0000       0.108279         2.9464

MULLIKEN ATOMIC CHARGES
-----------------------
   0 C :    0.315224
   1 C :   -0.296228
   2 C :   -0.309827
   3 C :   -0.007681
   4 O :   -0.495319
   5 H :    0.160296
   6 H :    0.159593
   7 H :    0.146123
   8 H :    0.147303
   9 H :    0.149462
  10 H :    0.152963
  11 H :    0.146568
  12 C :    0.004842
  13 H :    0.148798
  14 H :    0.123968
  15 O :   -0.531851
  16 C :    0.065560
  17 C :    0.077500
  18 C :   -0.283685
  19 C :   -0.017540
  20 O :   -0.526356
  21 H :    0.153556
  22 O :   -0.605199
  23 H :    0.146107
  24 H :    0.146668
  25 H :    0.172560
  26 H :    0.162918
  27 H :    0.130859
  28 H :    0.362818
Sum of atomic charges:   -0.0000000

LOEWDIN ATOMIC CHARGES
----------------------
   0 C :    0.177825
   1 C :   -0.230190
   2 C :   -0.221683
   3 C :   -0.031094
   4 O :   -0.315575
   5 H :    0.108463
   6 H :    0.124678
   7 H :    0.115568
   8 H :    0.116822
   9 H :    0.109691
  10 H :    0.107806
  11 H :    0.104732
  12 C :   -0.038335
  13 H :    0.102535
  14 H :    0.092395
  15 O :   -0.324478
  16 C :    0.015936
  17 C :    0.039550
  18 C :   -0.240449
  19 C :   -0.032080
  20 O :   -0.329111
  21 H :    0.114525
  22 O :   -0.418511
  23 H :    0.113152
  24 H :    0.117185
  25 H :    0.129987
  26 H :    0.114172
  27 H :    0.094510
  28 H :    0.281972

  Mayer bond orders larger than 0.100000
B(  0-C ,  1-C ) :   0.9301 B(  0-C ,  4-O ) :   0.9167 B(  0-C ,  5-H ) :   0.9347
B(  0-C , 15-O ) :   0.8759 B(  1-C ,  2-C ) :   0.9519 B(  1-C ,  6-H ) :   0.9344
B(  1-C ,  7-H ) :   0.9322 B(  2-C ,  3-C ) :   0.9491 B(  2-C ,  8-H ) :   0.9451
B(  2-C ,  9-H ) :   0.9391 B(  3-C ,  4-O ) :   0.8450 B(  3-C , 10-H ) :   0.9335
B(  3-C , 11-H ) :   0.9390 B( 12-C , 13-H ) :   0.9055 B( 12-C , 14-H ) :   0.9062
B( 12-C , 15-O ) :   0.8422 B( 12-C , 16-C ) :   0.9005 B( 16-C , 17-C ) :   0.9088
B( 16-C , 20-O ) :   0.8816 B( 16-C , 21-H ) :   0.9227 B( 17-C , 18-C ) :   0.9239
B( 17-C , 22-O ) :   0.8885 B( 17-C , 23-H ) :   0.9372 B( 18-C , 19-C ) :   0.9464
B( 18-C , 24-H ) :   0.9373 B( 18-C , 25-H ) :   0.9194 B( 19-C , 20-O ) :   0.8339
B( 19-C , 26-H ) :   0.9324 B( 19-C , 27-H ) :   0.9381 B( 22-O , 28-H ) :   0.7958

FINAL SINGLE POINT ENERGY      -652.856599188430

DIPOLE MOMENT
-------------
                                X             Y             Z
Electronic contribution:     -3.93117      -1.70251       0.59131
Nuclear contribution   :      5.05146       2.34389      -0.86963
                        -----------------------------------------
Total Dipole Moment    :      1.12028       0.64137      -0.27832
                        -----------------------------------------
Magnitude (a.u.)       :      1.32055
Magnitude (Debye)      :      3.35657

Rotational constants in cm-1:     0.060366     0.013532     0.012993
Rotational constants in MHz :  1809.738534   405.670932   389.519352

                             ****ORCA TERMINATED NORMALLY****
TOTAL RUN TIME: 0 days 0 hours 25 minutes 40 seconds 685 msec
