                         Program Version 4.2.0 -  RELEASE  -
|  1> # Test redundant internal optimization
|  2> #
|  3> ! RKS B3LYP  Opt TightSCF SmallPrint
|  4>
|  5> %basis
|  6>         Basis "6-31G"
|  7> end
|  8>
|  9> %geom
| 10> Constraints
| 11> { D 4  0  15  12  150.0   C } # D for Dihedral angle
| 12> { D 0  15  12  16  180.0   C } # D for Dihedral angle
| 13> { D 0  4  3  2   C } # D for Dihedral angle
| 14> { D 4  3  2  1   C } # D for Dihedral angle
| 15> { D 3  2  1  0   C } # D for Dihedral angle
| 16> { D 2  1  0  4   C } # D for Dihedral angle
| 17> { D 1  0  4  3   C } # D for Dihedral angle
| 18> { D 16  20  19  18   C } # D for Dihedral angle
| 19> { D 20  19  18  17   C } # D for Dihedral angle
| 20> { D 19  18  17  16   C } # D for Dihedral angle
| 21> { D 18  17  16  20   C } # D for Dihedral angle
| 22> { D 17  16  20  19   C } # D for Dihedral angle
| 23> { D 15  12  16  20   C } # D for Dihedral angle
| 24> end
| 25> end
| 26>
| 27>
| 28> #%pal
| 29> #nprocs 8
| 30> #end
| 31>
| 32> * xyz 0 1
| 33> C  -21.048   26.222   46.251
| 34> C  -20.361   27.558   45.944
| 35> C  -20.329   28.222   47.341
| 36> C  -20.110   27.022   48.296
| 37> O  -20.473   25.807   47.535
| 38> H  -20.833   25.428   45.533
| 39> H  -19.344   27.382   45.576
| 40> H  -20.898   28.157   45.201
| 41> H  -19.543   28.978   47.434
| 42> H  -21.289   28.710   47.548
| 43> H  -20.733   27.082   49.195
| 44> H  -19.064   26.913   48.597
| 45> C  -23.210   27.459   45.431
| 46> H  -22.759   28.437   45.641
| 47> H  -23.010   27.206   44.382
| 48> O  -22.586   26.394   46.375
| 49> C  -24.749   27.584   45.602
| 50> C  -25.114   28.100   46.999
| 51> C  -24.851   29.618   46.850
| 52> C  -25.267   29.905   45.385
| 53> O  -25.284   28.601   44.690
| 54> H  -25.217   26.636   45.334
| 55> O  -26.615   27.829   47.291
| 56> H  -24.520   27.642   47.796
| 57> H  -25.417   30.219   47.570
| 58> H  -23.786   29.832   47.000
| 59> H  -24.566   30.575   44.875
| 60> H  -26.274   30.324   45.312
| 61> H  -27.231   28.280   46.504
| 62> *
| 63>
| 64>                          ****END OF INPUT****
 Total Charge           Charge          ....    0
 Multiplicity           Mult            ....    1
 Number of Electrons    NEL             ....  102
FINAL SINGLE POINT ENERGY      -652.829607964886
FINAL SINGLE POINT ENERGY      -652.853119421255
FINAL SINGLE POINT ENERGY      -652.857228796408
FINAL SINGLE POINT ENERGY      -652.858126214046
FINAL SINGLE POINT ENERGY      -652.858251056202
FINAL SINGLE POINT ENERGY      -652.858270748384
                    ***********************HURRAY********************

CARTESIAN COORDINATES (ANGSTROEM)
---------------------------------
  C    -21.170220   26.277861   46.228520
  C    -20.266142   27.472521   45.925291
  C    -20.267309   28.230775   47.277843
  C    -20.325290   27.082769   48.308263
  O    -20.796459   25.891548   47.559052
  H    -21.013095   25.406183   45.587807
  H    -19.263444   27.092956   45.699389
  H    -20.587398   28.085812   45.080237
  H    -19.381787   28.860817   47.403495
  H    -21.153144   28.870780   47.356301
  H    -21.017240   27.275904   49.131801
  H    -19.341879   26.828498   48.713870
  C    -23.150319   27.564808   45.333742
  H    -22.693196   28.552554   45.484185
  H    -22.998724   27.276695   44.284542
  O    -22.600576   26.579035   46.247109
  C    -24.649883   27.627512   45.620953
  C    -25.025524   28.099899   47.032756
  C    -24.879498   29.636865   46.896432
  C    -25.343870   29.910319   45.443748
  O    -25.276768   28.610534   44.729892
  H    -25.101676   26.656049   45.404239
  O    -26.392502   27.722402   47.356416
  H    -24.402085   27.658326   47.807741
  H    -25.489791   30.151282   47.642303
  H    -23.835744   29.935601   47.043609
  H    -24.712084   30.635874   44.922256
  H    -26.382239   30.252313   45.392482
  H    -26.963114   27.875507   46.573726

 Multiplicity           Mult            ....    1
 Number of Electrons    NEL             ....  102
 Basis Dimension        Dim             ....  149

ORBITAL ENERGIES
----------------

  NO   OCC          E(Eh)            E(eV)
   0   2.0000     -19.145928      -520.9872
   1   2.0000     -19.144182      -520.9397
   2   2.0000     -19.143425      -520.9191
   3   2.0000     -19.133597      -520.6516
   4   2.0000     -10.284019      -279.8424
   5   2.0000     -10.235264      -278.5157
   6   2.0000     -10.234778      -278.5025
   7   2.0000     -10.233425      -278.4656
   8   2.0000     -10.233326      -278.4630
   9   2.0000     -10.230406      -278.3835
  10   2.0000     -10.196897      -277.4717
  11   2.0000     -10.196271      -277.4546
  12   2.0000     -10.188672      -277.2479
  13   2.0000      -1.056209       -28.7409
  14   2.0000      -1.036500       -28.2046
  15   2.0000      -1.003707       -27.3123
  16   2.0000      -0.997374       -27.1399
  17   2.0000      -0.794429       -21.6175
  18   2.0000      -0.781477       -21.2651
  19   2.0000      -0.770715       -20.9722
  20   2.0000      -0.734796       -19.9948
  21   2.0000      -0.679977       -18.5031
  22   2.0000      -0.608641       -16.5620
  23   2.0000      -0.604410       -16.4468
  24   2.0000      -0.595317       -16.1994
  25   2.0000      -0.578167       -15.7327
  26   2.0000      -0.526242       -14.3198
  27   2.0000      -0.515389       -14.0244
  28   2.0000      -0.505114       -13.7448
  29   2.0000      -0.495270       -13.4770
  30   2.0000      -0.475817       -12.9476
  31   2.0000      -0.456497       -12.4219
  32   2.0000      -0.452735       -12.3195
  33   2.0000      -0.445480       -12.1221
  34   2.0000      -0.428692       -11.6653
  35   2.0000      -0.414397       -11.2763
  36   2.0000      -0.406868       -11.0715
  37   2.0000      -0.392525       -10.6811
  38   2.0000      -0.384899       -10.4736
  39   2.0000      -0.370164       -10.0727
  40   2.0000      -0.365538        -9.9468
  41   2.0000      -0.360722        -9.8157
  42   2.0000      -0.357054        -9.7159
  43   2.0000      -0.333616        -9.0782
  44   2.0000      -0.318245        -8.6599
  45   2.0000      -0.307309        -8.3623
  46   2.0000      -0.299248        -8.1429
  47   2.0000      -0.272047        -7.4028
  48   2.0000      -0.265489        -7.2243
  49   2.0000      -0.254980        -6.9383
  50   2.0000      -0.247623        -6.7382
  51   0.0000       0.052233         1.4213
  52   0.0000       0.066170         1.8006
  53   0.0000       0.090610         2.4656
  54   0.0000       0.098432         2.6785
  55   0.0000       0.101754         2.7689

MULLIKEN ATOMIC CHARGES
-----------------------
   0 C :    0.322304
   1 C :   -0.297675
   2 C :   -0.303218
   3 C :   -0.001383
   4 O :   -0.495842
   5 H :    0.152066
   6 H :    0.154752
   7 H :    0.147580
   8 H :    0.146926
   9 H :    0.149491
  10 H :    0.153579
  11 H :    0.146118
  12 C :   -0.006634
  13 H :    0.122874
  14 H :    0.144702
  15 O :   -0.529015
  16 C :    0.057334
  17 C :    0.089007
  18 C :   -0.295142
  19 C :   -0.034412
  20 O :   -0.528886
  21 H :    0.170868
  22 O :   -0.601676
  23 H :    0.180079
  24 H :    0.163418
  25 H :    0.137227
  26 H :    0.145385
  27 H :    0.147797
  28 H :    0.362378
Sum of atomic charges:    0.0000000

LOEWDIN ATOMIC CHARGES
----------------------
   0 C :    0.185456
   1 C :   -0.233423
   2 C :   -0.217620
   3 C :   -0.026682
   4 O :   -0.303334
   5 H :    0.102812
   6 H :    0.121196
   7 H :    0.115979
   8 H :    0.116777
   9 H :    0.108989
  10 H :    0.108756
  11 H :    0.104847
  12 C :   -0.041169
  13 H :    0.087272
  14 H :    0.101528
  15 O :   -0.338790
  16 C :    0.019894
  17 C :    0.038760
  18 C :   -0.240825
  19 C :   -0.039682
  20 O :   -0.331439
  21 H :    0.120968
  22 O :   -0.413405
  23 H :    0.129487
  24 H :    0.127391
  25 H :    0.108645
  26 H :    0.103019
  27 H :    0.103392
  28 H :    0.281201

  Mayer bond orders larger than 0.100000
B(  0-C ,  1-C ) :   0.9305 B(  0-C ,  4-O ) :   0.9357 B(  0-C ,  5-H ) :   0.9249
B(  0-C , 15-O ) :   0.8317 B(  1-C ,  2-C ) :   0.9495 B(  1-C ,  6-H ) :   0.9337
B(  1-C ,  7-H ) :   0.9279 B(  2-C ,  3-C ) :   0.9524 B(  2-C ,  8-H ) :   0.9453
B(  2-C ,  9-H ) :   0.9428 B(  3-C ,  4-O ) :   0.8384 B(  3-C , 10-H ) :   0.9341
B(  3-C , 11-H ) :   0.9392 B( 12-C , 13-H ) :   0.9086 B( 12-C , 14-H ) :   0.9163
B( 12-C , 15-O ) :   0.8305 B( 12-C , 16-C ) :   0.9025 B( 16-C , 17-C ) :   0.9145
B( 16-C , 20-O ) :   0.8412 B( 16-C , 21-H ) :   0.9242 B( 17-C , 18-C ) :   0.9098
B( 17-C , 22-O ) :   0.8898 B( 17-C , 23-H ) :   0.9221 B( 18-C , 19-C ) :   0.9427
B( 18-C , 24-H ) :   0.9372 B( 18-C , 25-H ) :   0.9347 B( 19-C , 20-O ) :   0.8443
B( 19-C , 26-H ) :   0.9353 B( 19-C , 27-H ) :   0.9377 B( 22-O , 28-H ) :   0.7958

FINAL SINGLE POINT ENERGY      -652.858273451384

DIPOLE MOMENT
-------------
                                X             Y             Z
Electronic contribution:     -4.10405      -5.59026      -0.61095
Nuclear contribution   :      5.17542       7.06862       0.14728
                        -----------------------------------------
Total Dipole Moment    :      1.07137       1.47836      -0.46367
                        -----------------------------------------
Magnitude (a.u.)       :      1.88372
Magnitude (Debye)      :      4.78802

Rotational constants in cm-1:     0.050245     0.013707     0.013386
Rotational constants in MHz :  1506.309474   410.913578   401.294507

                             ****ORCA TERMINATED NORMALLY****
TOTAL RUN TIME: 0 days 0 hours 26 minutes 28 seconds 377 msec
