                         Program Version 4.2.1 -  RELEASE  -
|  1> # Test redundant internal optimization
|  2> #
|  3> ! RKS B3LYP  Opt TightSCF SmallPrint
|  4>
|  5> %basis
|  6>         Basis "6-31G"
|  7> end
|  8>
|  9> %geom
| 10> Constraints
| 11> { D 4  0  19  14  285.0   C } # D for Dihedral angle
| 12> { D 0  19  14  12  345.0   C } # D for Dihedral angle
| 13> { D 0  4  3  2   C } # D for Dihedral angle
| 14> { D 4  3  2  1   C } # D for Dihedral angle
| 15> { D 3  2  1  0   C } # D for Dihedral angle
| 16> { D 2  1  0  4   C } # D for Dihedral angle
| 17> { D 1  0  4  3   C } # D for Dihedral angle
| 18> { D 14  15  16  17   C } # D for Dihedral angle
| 19> { D 15  16  17  12   C } # D for Dihedral angle
| 20> { D 16  17  12  14   C } # D for Dihedral angle
| 21> { D 17  12  14  15   C } # D for Dihedral angle
| 22> { D 12  14  15  16   C } # D for Dihedral angle
| 23> end
| 24> end
| 25>
| 26>
| 27> #%pal
| 28> #nprocs 8
| 29> #end
| 30>
| 31> * xyz 0 1
| 32> C  -21.048   26.222   46.251
| 33> C  -20.361   27.558   45.944
| 34> C  -20.329   28.222   47.341
| 35> C  -20.110   27.022   48.296
| 36> O  -20.473   25.807   47.535
| 37> H  -20.833   25.428   45.533
| 38> H  -19.344   27.382   45.576
| 39> H  -20.898   28.157   45.201
| 40> H  -19.543   28.978   47.434
| 41> H  -21.289   28.710   47.548
| 42> H  -20.733   27.082   49.195
| 43> H  -19.064   26.913   48.597
| 44> C  -22.309   23.985   45.970
| 45> H  -22.904   23.092   45.724
| 46> C  -23.203   25.146   46.420
| 47> C  -23.510   24.756   47.885
| 48> C  -22.195   24.085   48.354
| 49> O  -21.448   23.722   47.129
| 50> H  -21.651   24.219   45.131
| 51> O  -22.472   26.381   46.366
| 52> H  -24.107   25.253   45.811
| 53> H  -23.784   25.616   48.505
| 54> H  -24.342   24.041   47.919
| 55> H  -22.372   23.181   48.947
| 56> H  -21.560   24.766   48.928
| 57> *
| 58>
| 59>                          ****END OF INPUT****
 Total Charge           Charge          ....    0
 Multiplicity           Mult            ....    1
 Number of Electrons    NEL             ....   86
FINAL SINGLE POINT ENERGY      -538.399293760040
FINAL SINGLE POINT ENERGY      -538.428288894773
FINAL SINGLE POINT ENERGY      -538.430729002244
FINAL SINGLE POINT ENERGY      -538.431114108735
FINAL SINGLE POINT ENERGY      -538.431152315537
FINAL SINGLE POINT ENERGY      -538.431162851917
                    ***********************HURRAY********************

CARTESIAN COORDINATES (ANGSTROEM)
---------------------------------
  C    -20.821438   26.275268   46.224662
  C    -20.379735   27.715496   45.954723
  C    -20.406884   28.325744   47.376227
  C    -19.956729   27.149752   48.271064
  O    -20.145363   25.920063   47.458880
  H    -20.493980   25.538414   45.488794
  H    -19.361753   27.707737   45.548870
  H    -21.042921   28.223873   45.252383
  H    -19.751743   29.196722   47.473651
  H    -21.427947   28.630669   47.622825
  H    -20.543343   27.063406   49.189788
  H    -18.894081   27.194720   48.527991
  C    -22.445154   23.757260   46.004646
  H    -23.238322   23.034384   45.761029
  C    -23.084599   25.083439   46.411811
  C    -23.493244   24.795137   47.866945
  C    -22.363507   23.875503   48.388649
  O    -21.682557   23.339928   47.180247
  H    -21.753035   23.813191   45.162004
  O    -22.255211   26.294458   46.344848
  H    -23.949834   25.326450   45.786858
  H    -23.588944   25.724356   48.432720
  H    -24.460673   24.278767   47.880563
  H    -22.739461   23.036798   48.984112
  H    -21.601543   24.422463   48.945709

 Multiplicity           Mult            ....    1
 Number of Electrons    NEL             ....   86
 Basis Dimension        Dim             ....  127

ORBITAL ENERGIES
----------------

  NO   OCC          E(Eh)            E(eV)
   0   2.0000     -19.138768      -520.7923
   1   2.0000     -19.133216      -520.6413
   2   2.0000     -19.124597      -520.4068
   3   2.0000     -10.274450      -279.5820
   4   2.0000     -10.239277      -278.6249
   5   2.0000     -10.224589      -278.2252
   6   2.0000     -10.220396      -278.1111
   7   2.0000     -10.211877      -277.8793
   8   2.0000     -10.181404      -277.0501
   9   2.0000     -10.181288      -277.0469
  10   2.0000     -10.179489      -276.9980
  11   2.0000      -1.046720       -28.4827
  12   2.0000      -1.007328       -27.4108
  13   2.0000      -0.984951       -26.8019
  14   2.0000      -0.789853       -21.4930
  15   2.0000      -0.772890       -21.0314
  16   2.0000      -0.734351       -19.9827
  17   2.0000      -0.720385       -19.6027
  18   2.0000      -0.617576       -16.8051
  19   2.0000      -0.593629       -16.1535
  20   2.0000      -0.592299       -16.1173
  21   2.0000      -0.561328       -15.2745
  22   2.0000      -0.519752       -14.1432
  23   2.0000      -0.497671       -13.5423
  24   2.0000      -0.482955       -13.1419
  25   2.0000      -0.475323       -12.9342
  26   2.0000      -0.446029       -12.1371
  27   2.0000      -0.440352       -11.9826
  28   2.0000      -0.423739       -11.5305
  29   2.0000      -0.408816       -11.1245
  30   2.0000      -0.398785       -10.8515
  31   2.0000      -0.379842       -10.3360
  32   2.0000      -0.373288       -10.1577
  33   2.0000      -0.361213        -9.8291
  34   2.0000      -0.356170        -9.6919
  35   2.0000      -0.351451        -9.5635
  36   2.0000      -0.339581        -9.2405
  37   2.0000      -0.320956        -8.7337
  38   2.0000      -0.302968        -8.2442
  39   2.0000      -0.285883        -7.7793
  40   2.0000      -0.264454        -7.1962
  41   2.0000      -0.244317        -6.6482
  42   2.0000      -0.230234        -6.2650
  43   0.0000       0.078954         2.1484
  44   0.0000       0.097128         2.6430
  45   0.0000       0.103242         2.8094
  46   0.0000       0.108501         2.9525
  47   0.0000       0.116319         3.1652

MULLIKEN ATOMIC CHARGES
-----------------------
   0 C :    0.297066
   1 C :   -0.258913
   2 C :   -0.295604
   3 C :   -0.007870
   4 O :   -0.495693
   5 H :    0.148312
   6 H :    0.144860
   7 H :    0.154295
   8 H :    0.138181
   9 H :    0.158511
  10 H :    0.139126
  11 H :    0.143166
  12 C :   -0.031700
  13 H :    0.131986
  14 C :    0.096742
  15 C :   -0.290109
  16 C :   -0.003835
  17 O :   -0.514893
  18 H :    0.152906
  19 O :   -0.541126
  20 H :    0.143616
  21 H :    0.156935
  22 H :    0.135367
  23 H :    0.131767
  24 H :    0.166910
Sum of atomic charges:   -0.0000000

LOEWDIN ATOMIC CHARGES
----------------------
   0 C :    0.175483
   1 C :   -0.214175
   2 C :   -0.215967
   3 C :   -0.031820
   4 O :   -0.318829
   5 H :    0.099140
   6 H :    0.113515
   7 H :    0.122848
   8 H :    0.112099
   9 H :    0.117142
  10 H :    0.100183
  11 H :    0.102651
  12 C :   -0.050512
  13 H :    0.097884
  14 C :    0.044154
  15 C :   -0.231036
  16 C :   -0.032711
  17 O :   -0.326673
  18 H :    0.111752
  19 O :   -0.329657
  20 H :    0.108534
  21 H :    0.124639
  22 H :    0.109673
  23 H :    0.096774
  24 H :    0.114908

  Mayer bond orders larger than 0.100000
B(  0-C ,  1-C ) :   0.9416 B(  0-C ,  4-O ) :   0.9062 B(  0-C ,  5-H ) :   0.9164
B(  0-C , 19-O ) :   0.8556 B(  1-C ,  2-C ) :   0.9584 B(  1-C ,  6-H ) :   0.9408
B(  1-C ,  7-H ) :   0.9369 B(  2-C ,  3-C ) :   0.9538 B(  2-C ,  8-H ) :   0.9457
B(  2-C ,  9-H ) :   0.9448 B(  3-C ,  4-O ) :   0.8448 B(  3-C , 10-H ) :   0.9349
B(  3-C , 11-H ) :   0.9397 B( 12-C , 13-H ) :   0.9089 B( 12-C , 14-C ) :   0.9283
B( 12-C , 17-O ) :   0.8750 B( 12-C , 18-H ) :   0.9276 B( 14-C , 15-C ) :   0.9350
B( 14-C , 19-O ) :   0.8479 B( 14-C , 20-H ) :   0.9339 B( 15-C , 16-C ) :   0.9494
B( 15-C , 21-H ) :   0.9379 B( 15-C , 22-H ) :   0.9385 B( 16-C , 17-O ) :   0.8441
B( 16-C , 23-H ) :   0.9337 B( 16-C , 24-H ) :   0.9248

FINAL SINGLE POINT ENERGY      -538.431162840493

DIPOLE MOMENT
-------------
                                X             Y             Z
Electronic contribution:      0.61763      -2.80817      -1.41013
Nuclear contribution   :     -1.17580       3.55609       1.27945
                        -----------------------------------------
Total Dipole Moment    :     -0.55817       0.74791      -0.13068
                        -----------------------------------------
Magnitude (a.u.)       :      0.94234
Magnitude (Debye)      :      2.39524

Rotational constants in cm-1:     0.070549     0.026254     0.024382
Rotational constants in MHz :  2115.012852   787.065491   730.943109

                             ****ORCA TERMINATED NORMALLY****
TOTAL RUN TIME: 0 days 0 hours 7 minutes 56 seconds 430 msec
