                         Program Version 4.2.0 -  RELEASE  -
|  1> # Test redundant internal optimization
|  2> #
|  3> ! RKS B3LYP  Opt TightSCF SmallPrint
|  4>
|  5> %basis
|  6>         Basis "6-31G"
|  7> end
|  8>
|  9> %geom
| 10> Constraints
| 11> { D 4  0  15  12  90.0   C } # D for Dihedral angle
| 12> { D 0  15  12  16  135.0   C } # D for Dihedral angle
| 13> { D 0  4  3  2   C } # D for Dihedral angle
| 14> { D 4  3  2  1   C } # D for Dihedral angle
| 15> { D 3  2  1  0   C } # D for Dihedral angle
| 16> { D 2  1  0  4   C } # D for Dihedral angle
| 17> { D 1  0  4  3   C } # D for Dihedral angle
| 18> { D 16  20  19  18   C } # D for Dihedral angle
| 19> { D 20  19  18  17   C } # D for Dihedral angle
| 20> { D 19  18  17  16   C } # D for Dihedral angle
| 21> { D 18  17  16  20   C } # D for Dihedral angle
| 22> { D 17  16  20  19   C } # D for Dihedral angle
| 23> { D 15  12  16  20   C } # D for Dihedral angle
| 24> end
| 25> end
| 26>
| 27>
| 28> #%pal
| 29> #nprocs 8
| 30> #end
| 31>
| 32> * xyz 0 1
| 33> C  -21.048   26.222   46.251
| 34> C  -20.361   27.558   45.944
| 35> C  -20.329   28.222   47.341
| 36> C  -20.110   27.022   48.296
| 37> O  -20.473   25.807   47.535
| 38> H  -20.833   25.428   45.533
| 39> H  -19.344   27.382   45.576
| 40> H  -20.898   28.157   45.201
| 41> H  -19.543   28.978   47.434
| 42> H  -21.289   28.710   47.548
| 43> H  -20.733   27.082   49.195
| 44> H  -19.064   26.913   48.597
| 45> C  -23.061   27.816   46.783
| 46> H  -23.369   27.806   47.836
| 47> H  -22.244   28.540   46.672
| 48> O  -22.586   26.394   46.375
| 49> C  -24.257   28.318   45.928
| 50> C  -25.504   27.456   46.156
| 51> C  -26.031   28.014   47.499
| 52> C  -25.690   29.523   47.411
| 53> O  -24.664   29.661   46.355
| 54> H  -23.944   28.394   44.885
| 55> O  -26.534   27.699   45.019
| 56> H  -25.285   26.383   46.197
| 57> H  -27.101   27.836   47.643
| 58> H  -25.498   27.545   48.335
| 59> H  -25.292   29.919   48.351
| 60> H  -26.548   30.127   47.108
| 61> H  -26.770   28.769   44.958
| 62> *
| 63>
| 64>                          ****END OF INPUT****
 Total Charge           Charge          ....    0
 Multiplicity           Mult            ....    1
 Number of Electrons    NEL             ....  102
FINAL SINGLE POINT ENERGY      -652.805417288034
FINAL SINGLE POINT ENERGY      -652.838120458346
FINAL SINGLE POINT ENERGY      -652.854093634171
FINAL SINGLE POINT ENERGY      -652.856581140930
FINAL SINGLE POINT ENERGY      -652.856952143590
FINAL SINGLE POINT ENERGY      -652.857009714804
FINAL SINGLE POINT ENERGY      -652.857015294606
FINAL SINGLE POINT ENERGY      -652.857015198575
                    ***********************HURRAY********************

CARTESIAN COORDINATES (ANGSTROEM)
---------------------------------
  C    -21.258703   26.409262   46.384962
  C    -20.295922   27.514685   45.925634
  C    -19.876857   28.167687   47.278313
  C    -19.845569   26.948404   48.236151
  O    -20.629728   25.881826   47.574009
  H    -21.310709   25.566681   45.694045
  H    -19.433767   27.043286   45.443801
  H    -20.745830   28.218757   45.219857
  H    -18.899962   28.657092   47.213660
  H    -20.599118   28.918220   47.606780
  H    -20.284467   27.160406   49.215907
  H    -18.833736   26.557358   48.377372
  C    -23.154551   28.038617   46.977305
  H    -23.469824   27.977263   48.025981
  H    -22.408688   28.831593   46.887820
  O    -22.653258   26.740456   46.550599
  C    -24.323035   28.396749   46.058634
  C    -25.525349   27.445108   46.131077
  C    -26.242770   27.943441   47.409987
  C    -26.003461   29.473216   47.379438
  O    -24.868899   29.702622   46.447335
  H    -23.960488   28.488448   45.030693
  O    -26.366546   27.587119   44.951680
  H    -25.235223   26.396638   46.166493
  H    -27.302164   27.677226   47.385506
  H    -25.795074   27.486765   48.299328
  H    -25.745458   29.885200   48.359839
  H    -26.860630   30.026850   46.983445
  H    -26.473214   28.540023   44.746347

 Multiplicity           Mult            ....    1
 Number of Electrons    NEL             ....  102
 Basis Dimension        Dim             ....  149

ORBITAL ENERGIES
----------------

  NO   OCC          E(Eh)            E(eV)
   0   2.0000     -19.146919      -521.0141
   1   2.0000     -19.145953      -520.9879
   2   2.0000     -19.140892      -520.8501
   3   2.0000     -19.133935      -520.6608
   4   2.0000     -10.282036      -279.7884
   5   2.0000     -10.234320      -278.4900
   6   2.0000     -10.233932      -278.4794
   7   2.0000     -10.233048      -278.4554
   8   2.0000     -10.232256      -278.4338
   9   2.0000     -10.230294      -278.3805
  10   2.0000     -10.196307      -277.4556
  11   2.0000     -10.196108      -277.4502
  12   2.0000     -10.186528      -277.1895
  13   2.0000      -1.052742       -28.6466
  14   2.0000      -1.035699       -28.1828
  15   2.0000      -1.003606       -27.3095
  16   2.0000      -0.998733       -27.1769
  17   2.0000      -0.791451       -21.5365
  18   2.0000      -0.782173       -21.2840
  19   2.0000      -0.771155       -20.9842
  20   2.0000      -0.733928       -19.9712
  21   2.0000      -0.681281       -18.5386
  22   2.0000      -0.607796       -16.5390
  23   2.0000      -0.603424       -16.4200
  24   2.0000      -0.599371       -16.3097
  25   2.0000      -0.574564       -15.6347
  26   2.0000      -0.526147       -14.3172
  27   2.0000      -0.514155       -13.9909
  28   2.0000      -0.504906       -13.7392
  29   2.0000      -0.490268       -13.3409
  30   2.0000      -0.473766       -12.8918
  31   2.0000      -0.461158       -12.5487
  32   2.0000      -0.448674       -12.2090
  33   2.0000      -0.439346       -11.9552
  34   2.0000      -0.428796       -11.6681
  35   2.0000      -0.415093       -11.2952
  36   2.0000      -0.408913       -11.1271
  37   2.0000      -0.391663       -10.6577
  38   2.0000      -0.386599       -10.5199
  39   2.0000      -0.367589       -10.0026
  40   2.0000      -0.363567        -9.8932
  41   2.0000      -0.359030        -9.7697
  42   2.0000      -0.355186        -9.6651
  43   2.0000      -0.330049        -8.9811
  44   2.0000      -0.317235        -8.6324
  45   2.0000      -0.308619        -8.3979
  46   2.0000      -0.297164        -8.0862
  47   2.0000      -0.275697        -7.5021
  48   2.0000      -0.267531        -7.2799
  49   2.0000      -0.257523        -7.0075
  50   2.0000      -0.243886        -6.6365
  51   0.0000       0.063442         1.7263
  52   0.0000       0.068577         1.8661
  53   0.0000       0.090295         2.4571
  54   0.0000       0.095555         2.6002
  55   0.0000       0.102216         2.7814

MULLIKEN ATOMIC CHARGES
-----------------------
   0 C :    0.311147
   1 C :   -0.294421
   2 C :   -0.317254
   3 C :   -0.007824
   4 O :   -0.500141
   5 H :    0.168291
   6 H :    0.161104
   7 H :    0.151068
   8 H :    0.147647
   9 H :    0.153416
  10 H :    0.145427
  11 H :    0.148297
  12 C :   -0.016864
  13 H :    0.140668
  14 H :    0.148044
  15 O :   -0.531095
  16 C :    0.063313
  17 C :    0.087876
  18 C :   -0.296181
  19 C :   -0.033880
  20 O :   -0.530278
  21 H :    0.158108
  22 O :   -0.602843
  23 H :    0.182756
  24 H :    0.161981
  25 H :    0.146995
  26 H :    0.145389
  27 H :    0.148231
  28 H :    0.361027
Sum of atomic charges:    0.0000000

LOEWDIN ATOMIC CHARGES
----------------------
   0 C :    0.177061
   1 C :   -0.231570
   2 C :   -0.224313
   3 C :   -0.032401
   4 O :   -0.319280
   5 H :    0.113708
   6 H :    0.125601
   7 H :    0.118143
   8 H :    0.116783
   9 H :    0.109964
  10 H :    0.103378
  11 H :    0.104886
  12 C :   -0.042472
  13 H :    0.100900
  14 H :    0.105943
  15 O :   -0.324464
  16 C :    0.014379
  17 C :    0.038017
  18 C :   -0.240390
  19 C :   -0.038866
  20 O :   -0.334358
  21 H :    0.114443
  22 O :   -0.415135
  23 H :    0.130972
  24 H :    0.127032
  25 H :    0.115097
  26 H :    0.103397
  27 H :    0.103081
  28 H :    0.280467

  Mayer bond orders larger than 0.100000
B(  0-C ,  1-C ) :   0.9251 B(  0-C ,  4-O ) :   0.9064 B(  0-C ,  5-H ) :   0.9350
B(  0-C , 15-O ) :   0.8882 B(  1-C ,  2-C ) :   0.9533 B(  1-C ,  6-H ) :   0.9341
B(  1-C ,  7-H ) :   0.9336 B(  2-C ,  3-C ) :   0.9456 B(  2-C ,  8-H ) :   0.9452
B(  2-C ,  9-H ) :   0.9370 B(  3-C ,  4-O ) :   0.8481 B(  3-C , 10-H ) :   0.9343
B(  3-C , 11-H ) :   0.9389 B( 12-C , 13-H ) :   0.9282 B( 12-C , 14-H ) :   0.9040
B( 12-C , 15-O ) :   0.8247 B( 12-C , 16-C ) :   0.8928 B( 16-C , 17-C ) :   0.9153
B( 16-C , 20-O ) :   0.8439 B( 16-C , 21-H ) :   0.9265 B( 17-C , 18-C ) :   0.9133
B( 17-C , 22-O ) :   0.8902 B( 17-C , 23-H ) :   0.9218 B( 18-C , 19-C ) :   0.9407
B( 18-C , 24-H ) :   0.9381 B( 18-C , 25-H ) :   0.9345 B( 19-C , 20-O ) :   0.8414
B( 19-C , 26-H ) :   0.9361 B( 19-C , 27-H ) :   0.9377 B( 22-O , 28-H ) :   0.7966

FINAL SINGLE POINT ENERGY      -652.857004135701

DIPOLE MOMENT
-------------
                                X             Y             Z
Electronic contribution:     -2.62639      -2.71536      -2.63147
Nuclear contribution   :      3.28332       3.75558       3.15558
                        -----------------------------------------
Total Dipole Moment    :      0.65693       1.04022       0.52412
                        -----------------------------------------
Magnitude (a.u.)       :      1.33728
Magnitude (Debye)      :      3.39910

Rotational constants in cm-1:     0.057928     0.012367     0.011832
Rotational constants in MHz :  1736.635166   370.743107   354.726706

                             ****ORCA TERMINATED NORMALLY****
TOTAL RUN TIME: 0 days 0 hours 25 minutes 25 seconds 843 msec
