                         Program Version 4.2.0 -  RELEASE  -
|  1> # Test redundant internal optimization
|  2> #
|  3> ! RKS B3LYP  Opt TightSCF SmallPrint
|  4>
|  5> %basis
|  6>         Basis "6-31G"
|  7> end
|  8>
|  9> %geom
| 10> Constraints
| 11> { D 4  0  15  12  315.0   C } # D for Dihedral angle
| 12> { D 0  15  12  16  315.0   C } # D for Dihedral angle
| 13> { D 0  4  3  2   C } # D for Dihedral angle
| 14> { D 4  3  2  1   C } # D for Dihedral angle
| 15> { D 3  2  1  0   C } # D for Dihedral angle
| 16> { D 2  1  0  4   C } # D for Dihedral angle
| 17> { D 1  0  4  3   C } # D for Dihedral angle
| 18> { D 16  20  19  18   C } # D for Dihedral angle
| 19> { D 20  19  18  17   C } # D for Dihedral angle
| 20> { D 19  18  17  16   C } # D for Dihedral angle
| 21> { D 18  17  16  20   C } # D for Dihedral angle
| 22> { D 17  16  20  19   C } # D for Dihedral angle
| 23> { D 15  12  16  20   C } # D for Dihedral angle
| 24> end
| 25> end
| 26>
| 27>
| 28> #%pal
| 29> #nprocs 8
| 30> #end
| 31>
| 32> * xyz 0 1
| 33> C  -21.048   26.222   46.251
| 34> C  -20.361   27.558   45.944
| 35> C  -20.329   28.222   47.341
| 36> C  -20.110   27.022   48.296
| 37> O  -20.473   25.807   47.535
| 38> H  -20.833   25.428   45.533
| 39> H  -19.344   27.382   45.576
| 40> H  -20.898   28.157   45.201
| 41> H  -19.543   28.978   47.434
| 42> H  -21.289   28.710   47.548
| 43> H  -20.733   27.082   49.195
| 44> H  -19.064   26.913   48.597
| 45> C  -23.319   25.255   47.135
| 46> H  -23.138   25.363   48.212
| 47> H  -24.401   25.311   46.961
| 48> O  -22.586   26.394   46.375
| 49> C  -22.844   23.840   46.700
| 50> C  -22.983   23.648   45.185
| 51> C  -21.735   24.397   44.659
| 52> C  -20.671   24.119   45.750
| 53> O  -21.409   23.681   46.955
| 54> H  -23.361   23.089   47.300
| 55> H  -22.927   22.583   44.936
| 56> O  -24.311   24.217   44.617
| 57> H  -21.418   24.052   43.670
| 58> H  -21.943   25.471   44.588
| 59> H  -20.078   25.007   45.994
| 60> H  -19.993   23.306   45.474
| 61> H  -24.387   25.283   44.855
| 62> *
| 63>
| 64>                          ****END OF INPUT****
 Total Charge           Charge          ....    0
 Multiplicity           Mult            ....    1
 Number of Electrons    NEL             ....  102
FINAL SINGLE POINT ENERGY      -652.615566737580
FINAL SINGLE POINT ENERGY      -652.699408884904
FINAL SINGLE POINT ENERGY      -652.753935044508
FINAL SINGLE POINT ENERGY      -652.790020263491
FINAL SINGLE POINT ENERGY      -652.813499406623
FINAL SINGLE POINT ENERGY      -652.828536774271
FINAL SINGLE POINT ENERGY      -652.838079021473
FINAL SINGLE POINT ENERGY      -652.844207468720
FINAL SINGLE POINT ENERGY      -652.848056168977
FINAL SINGLE POINT ENERGY      -652.850323240646
FINAL SINGLE POINT ENERGY      -652.851435639881
FINAL SINGLE POINT ENERGY      -652.851714118565
FINAL SINGLE POINT ENERGY      -652.851835511063
FINAL SINGLE POINT ENERGY      -652.851905815476
FINAL SINGLE POINT ENERGY      -652.851942657262
FINAL SINGLE POINT ENERGY      -652.851961039534
FINAL SINGLE POINT ENERGY      -652.851969719408
FINAL SINGLE POINT ENERGY      -652.851974142065
FINAL SINGLE POINT ENERGY      -652.851975883825
                    ***********************HURRAY********************

CARTESIAN COORDINATES (ANGSTROEM)
---------------------------------
  C    -20.918656   26.595473   46.282177
  C    -20.543127   28.074227   46.185063
  C    -20.508053   28.490794   47.673966
  C    -19.966724   27.227155   48.378641
  O    -20.163770   26.111066   47.414631
  H    -20.611790   25.986039   45.433485
  H    -19.552327   28.163007   45.724444
  H    -21.263186   28.645470   45.595509
  H    -19.876970   29.366838   47.850408
  H    -21.521900   28.719641   48.013822
  H    -20.494873   26.988696   49.305384
  H    -18.892537   27.277955   48.579865
  C    -23.063329   25.401198   47.035042
  H    -22.933158   25.448072   48.123797
  H    -24.112010   25.611899   46.805843
  O    -22.348250   26.548682   46.470318
  C    -22.800229   23.937089   46.632529
  C    -23.140924   23.559175   45.180816
  C    -21.775722   23.785310   44.458440
  C    -20.751803   23.362049   45.537871
  O    -21.475755   23.380926   46.834652
  H    -23.454023   23.381191   47.318340
  H    -23.436683   22.509578   45.128799
  O    -24.250860   24.288175   44.607328
  H    -21.690590   23.198638   43.540193
  H    -21.688251   24.845092   44.192691
  H    -19.885137   24.023779   45.614672
  H    -20.401309   22.336738   45.389107
  H    -24.007054   25.233050   44.509166

 Multiplicity           Mult            ....    1
 Number of Electrons    NEL             ....  102
 Basis Dimension        Dim             ....  149

ORBITAL ENERGIES
----------------

  NO   OCC          E(Eh)            E(eV)
   0   2.0000     -19.144700      -520.9538
   1   2.0000     -19.142640      -520.8977
   2   2.0000     -19.140715      -520.8453
   3   2.0000     -19.135972      -520.7163
   4   2.0000     -10.279250      -279.7126
   5   2.0000     -10.239529      -278.6317
   6   2.0000     -10.231975      -278.4262
   7   2.0000     -10.229713      -278.3646
   8   2.0000     -10.225435      -278.2482
   9   2.0000     -10.225225      -278.2425
  10   2.0000     -10.189699      -277.2758
  11   2.0000     -10.185424      -277.1595
  12   2.0000     -10.185260      -277.1550
  13   2.0000      -1.052240       -28.6329
  14   2.0000      -1.029333       -28.0096
  15   2.0000      -1.012137       -27.5417
  16   2.0000      -0.991372       -26.9766
  17   2.0000      -0.789128       -21.4733
  18   2.0000      -0.775520       -21.1030
  19   2.0000      -0.768721       -20.9180
  20   2.0000      -0.732681       -19.9373
  21   2.0000      -0.679885       -18.5006
  22   2.0000      -0.609020       -16.5723
  23   2.0000      -0.604358       -16.4454
  24   2.0000      -0.598284       -16.2801
  25   2.0000      -0.559908       -15.2359
  26   2.0000      -0.529625       -14.4118
  27   2.0000      -0.506776       -13.7901
  28   2.0000      -0.499975       -13.6050
  29   2.0000      -0.480432       -13.0732
  30   2.0000      -0.468447       -12.7471
  31   2.0000      -0.461128       -12.5479
  32   2.0000      -0.441057       -12.0018
  33   2.0000      -0.431898       -11.7525
  34   2.0000      -0.420783       -11.4501
  35   2.0000      -0.412365       -11.2210
  36   2.0000      -0.408899       -11.1267
  37   2.0000      -0.394551       -10.7363
  38   2.0000      -0.376967       -10.2578
  39   2.0000      -0.374041       -10.1782
  40   2.0000      -0.356804        -9.7091
  41   2.0000      -0.355032        -9.6609
  42   2.0000      -0.344506        -9.3745
  43   2.0000      -0.331927        -9.0322
  44   2.0000      -0.325597        -8.8599
  45   2.0000      -0.308910        -8.4059
  46   2.0000      -0.294667        -8.0183
  47   2.0000      -0.270688        -7.3658
  48   2.0000      -0.264210        -7.1895
  49   2.0000      -0.253446        -6.8966
  50   2.0000      -0.235358        -6.4044
  51   0.0000       0.063920         1.7393
  52   0.0000       0.081490         2.2175
  53   0.0000       0.090328         2.4580
  54   0.0000       0.097180         2.6444
  55   0.0000       0.102420         2.7870

MULLIKEN ATOMIC CHARGES
-----------------------
   0 C :    0.309817
   1 C :   -0.257785
   2 C :   -0.296240
   3 C :   -0.010285
   4 O :   -0.505286
   5 H :    0.127428
   6 H :    0.141935
   7 H :    0.154725
   8 H :    0.140014
   9 H :    0.160575
  10 H :    0.147888
  11 H :    0.146209
  12 C :   -0.026921
  13 H :    0.153925
  14 H :    0.156003
  15 O :   -0.552411
  16 C :    0.085944
  17 C :    0.085958
  18 C :   -0.323750
  19 C :   -0.012923
  20 O :   -0.506756
  21 H :    0.153396
  22 H :    0.166183
  23 O :   -0.603694
  24 H :    0.153868
  25 H :    0.141740
  26 H :    0.161556
  27 H :    0.144645
  28 H :    0.364243
Sum of atomic charges:   -0.0000000

LOEWDIN ATOMIC CHARGES
----------------------
   0 C :    0.174161
   1 C :   -0.214154
   2 C :   -0.216114
   3 C :   -0.028675
   4 O :   -0.318521
   5 H :    0.090313
   6 H :    0.111807
   7 H :    0.123221
   8 H :    0.113429
   9 H :    0.118327
  10 H :    0.105334
  11 H :    0.104309
  12 C :   -0.052030
  13 H :    0.108299
  14 H :    0.118915
  15 O :   -0.343925
  16 C :    0.005517
  17 C :    0.033341
  18 C :   -0.242692
  19 C :   -0.031245
  20 O :   -0.310507
  21 H :    0.118894
  22 H :    0.117866
  23 O :   -0.408642
  24 H :    0.121236
  25 H :    0.106422
  26 H :    0.108436
  27 H :    0.104584
  28 H :    0.282092

  Mayer bond orders larger than 0.100000
B(  0-C ,  1-C ) :   0.9441 B(  0-C ,  4-O ) :   0.9116 B(  0-C ,  5-H ) :   0.9025
B(  0-C , 15-O ) :   0.8467 B(  1-C ,  2-C ) :   0.9560 B(  1-C ,  6-H ) :   0.9403
B(  1-C ,  7-H ) :   0.9362 B(  2-C ,  3-C ) :   0.9544 B(  2-C ,  8-H ) :   0.9458
B(  2-C ,  9-H ) :   0.9442 B(  3-C ,  4-O ) :   0.8350 B(  3-C , 10-H ) :   0.9350
B(  3-C , 11-H ) :   0.9399 B( 12-C , 13-H ) :   0.9268 B( 12-C , 14-H ) :   0.9186
B( 12-C , 15-O ) :   0.8422 B( 12-C , 16-C ) :   0.8952 B( 16-C , 17-C ) :   0.8797
B( 16-C , 20-O ) :   0.8821 B( 16-C , 21-H ) :   0.9160 B( 17-C , 18-C ) :   0.9234
B( 17-C , 22-H ) :   0.9355 B( 17-C , 23-O ) :   0.9021 B( 18-C , 19-C ) :   0.9408
B( 18-C , 24-H ) :   0.9413 B( 18-C , 25-H ) :   0.9314 B( 19-C , 20-O ) :   0.8388
B( 19-C , 26-H ) :   0.9165 B( 19-C , 27-H ) :   0.9372 B( 23-O , 28-H ) :   0.7913

FINAL SINGLE POINT ENERGY      -652.851986947325

DIPOLE MOMENT
-------------
                                X             Y             Z
Electronic contribution:     -2.44202      -3.61500       0.24809
Nuclear contribution   :      2.95705       4.42248      -0.52065
                        -----------------------------------------
Total Dipole Moment    :      0.51503       0.80748      -0.27256
                        -----------------------------------------
Magnitude (a.u.)       :      0.99577
Magnitude (Debye)      :      2.53106

Rotational constants in cm-1:     0.049428     0.017103     0.015671
Rotational constants in MHz :  1481.799366   512.740281   469.799376

                             ****ORCA TERMINATED NORMALLY****
TOTAL RUN TIME: 0 days 1 hours 30 minutes 44 seconds 599 msec
