                         Program Version 4.2.0 -  RELEASE  -
|  1> # Test redundant internal optimization
|  2> #
|  3> ! RKS B3LYP  Opt TightSCF SmallPrint
|  4>
|  5> %basis
|  6>         Basis "6-31G"
|  7> end
|  8>
|  9> %geom
| 10> Constraints
| 11> { D 4  0  15  12  0.0   C } # D for Dihedral angle
| 12> { D 0  15  12  16  120.0   C } # D for Dihedral angle
| 13> { D 0  4  3  2   C } # D for Dihedral angle
| 14> { D 4  3  2  1   C } # D for Dihedral angle
| 15> { D 3  2  1  0   C } # D for Dihedral angle
| 16> { D 2  1  0  4   C } # D for Dihedral angle
| 17> { D 1  0  4  3   C } # D for Dihedral angle
| 18> { D 16  20  19  18   C } # D for Dihedral angle
| 19> { D 20  19  18  17   C } # D for Dihedral angle
| 20> { D 19  18  17  16   C } # D for Dihedral angle
| 21> { D 18  17  16  20   C } # D for Dihedral angle
| 22> { D 17  16  20  19   C } # D for Dihedral angle
| 23> { D 15  12  16  20   C } # D for Dihedral angle
| 24> end
| 25> end
| 26>
| 27>
| 28> #%pal
| 29> #nprocs 8
| 30> #end
| 31>
| 32> * xyz 0 1
| 33> C  -21.048   26.222   46.251
| 34> C  -20.361   27.558   45.944
| 35> C  -20.329   28.222   47.341
| 36> C  -20.110   27.022   48.296
| 37> O  -20.473   25.807   47.535
| 38> H  -20.833   25.428   45.533
| 39> H  -19.344   27.382   45.576
| 40> H  -20.898   28.157   45.201
| 41> H  -19.543   28.978   47.434
| 42> H  -21.289   28.710   47.548
| 43> H  -20.733   27.082   49.195
| 44> H  -19.064   26.913   48.597
| 45> C  -23.172   26.101   47.783
| 46> H  -23.891   25.276   47.711
| 47> H  -22.375   25.801   48.476
| 48> O  -22.586   26.394   46.375
| 49> C  -23.897   27.329   48.400
| 50> C  -24.360   27.041   49.832
| 51> C  -23.047   27.222   50.629
| 52> C  -22.333   28.370   49.873
| 53> O  -22.968   28.455   48.541
| 54> H  -24.692   27.652   47.724
| 55> O  -25.418   28.090   50.272
| 56> H  -24.795   26.042   49.951
| 57> H  -23.219   27.461   51.683
| 58> H  -22.451   26.303   50.587
| 59> H  -21.260   28.186   49.747
| 60> H  -22.472   29.340   50.359
| 61> H  -25.004   29.098   50.161
| 62> *
| 63>
| 64>                          ****END OF INPUT****
 Total Charge           Charge          ....    0
 Multiplicity           Mult            ....    1
 Number of Electrons    NEL             ....  102
FINAL SINGLE POINT ENERGY      -652.810182583105
FINAL SINGLE POINT ENERGY      -652.837678735093
FINAL SINGLE POINT ENERGY      -652.855387798658
FINAL SINGLE POINT ENERGY      -652.858523664985
FINAL SINGLE POINT ENERGY      -652.859074565217
FINAL SINGLE POINT ENERGY      -652.859164177258
FINAL SINGLE POINT ENERGY      -652.859174087567
FINAL SINGLE POINT ENERGY      -652.859175057098
                    ***********************HURRAY********************

CARTESIAN COORDINATES (ANGSTROEM)
---------------------------------
  C    -21.113773   26.264662   46.283502
  C    -20.452339   27.580537   45.870427
  C    -20.084414   28.195872   47.242403
  C    -19.716799   26.960917   48.092594
  O    -20.305235   25.790764   47.379360
  H    -21.050556   25.487215   45.516458
  H    -19.559848   27.354122   45.275448
  H    -21.125004   28.211651   45.285419
  H    -19.254536   28.906464   47.172489
  H    -20.960008   28.701036   47.654241
  H    -20.121052   26.989122   49.107886
  H    -18.639173   26.777241   48.143189
  C    -23.121378   26.105745   47.848127
  H    -23.889340   25.337420   47.688797
  H    -22.350350   25.687772   48.507666
  O    -22.537901   26.412192   46.558271
  C    -23.802804   27.328027   48.472255
  C    -24.461577   27.060616   49.833995
  C    -23.277252   27.293482   50.808223
  C    -22.486978   28.440690   50.133911
  O    -22.928583   28.479462   48.714754
  H    -24.549519   27.686050   47.754604
  O    -25.552656   27.988608   50.080369
  H    -24.902178   26.066713   49.923881
  H    -23.640820   27.553674   51.804888
  H    -22.669422   26.384804   50.886778
  H    -21.403880   28.294489   50.172020
  H    -22.718942   29.419524   50.565461
  H    -25.288683   28.883130   49.777582

 Multiplicity           Mult            ....    1
 Number of Electrons    NEL             ....  102
 Basis Dimension        Dim             ....  149

ORBITAL ENERGIES
----------------

  NO   OCC          E(Eh)            E(eV)
   0   2.0000     -19.152380      -521.1627
   1   2.0000     -19.148576      -521.0592
   2   2.0000     -19.141996      -520.8802
   3   2.0000     -19.133861      -520.6588
   4   2.0000     -10.275634      -279.6142
   5   2.0000     -10.246712      -278.8272
   6   2.0000     -10.238504      -278.6038
   7   2.0000     -10.235693      -278.5274
   8   2.0000     -10.230808      -278.3944
   9   2.0000     -10.228661      -278.3360
  10   2.0000     -10.194614      -277.4096
  11   2.0000     -10.178783      -276.9788
  12   2.0000     -10.175795      -276.8974
  13   2.0000      -1.051289       -28.6070
  14   2.0000      -1.041427       -28.3387
  15   2.0000      -1.011233       -27.5171
  16   2.0000      -0.990460       -26.9518
  17   2.0000      -0.790671       -21.5153
  18   2.0000      -0.781554       -21.2672
  19   2.0000      -0.769998       -20.9527
  20   2.0000      -0.734565       -19.9885
  21   2.0000      -0.674928       -18.3657
  22   2.0000      -0.610301       -16.6071
  23   2.0000      -0.602720       -16.4008
  24   2.0000      -0.591780       -16.1031
  25   2.0000      -0.574244       -15.6260
  26   2.0000      -0.525917       -14.3109
  27   2.0000      -0.514898       -14.0111
  28   2.0000      -0.495183       -13.4746
  29   2.0000      -0.486962       -13.2509
  30   2.0000      -0.481179       -13.0936
  31   2.0000      -0.461537       -12.5591
  32   2.0000      -0.449521       -12.2321
  33   2.0000      -0.446818       -12.1585
  34   2.0000      -0.421197       -11.4614
  35   2.0000      -0.408653       -11.1200
  36   2.0000      -0.400393       -10.8952
  37   2.0000      -0.398460       -10.8426
  38   2.0000      -0.377521       -10.2729
  39   2.0000      -0.367418        -9.9979
  40   2.0000      -0.365283        -9.9398
  41   2.0000      -0.352779        -9.5996
  42   2.0000      -0.346184        -9.4201
  43   2.0000      -0.334492        -9.1020
  44   2.0000      -0.328336        -8.9345
  45   2.0000      -0.311090        -8.4652
  46   2.0000      -0.298044        -8.1102
  47   2.0000      -0.276777        -7.5315
  48   2.0000      -0.265696        -7.2299
  49   2.0000      -0.260066        -7.0768
  50   2.0000      -0.236990        -6.4488
  51   0.0000       0.053520         1.4563
  52   0.0000       0.082015         2.2317
  53   0.0000       0.091725         2.4960
  54   0.0000       0.094850         2.5810
  55   0.0000       0.096995         2.6394

MULLIKEN ATOMIC CHARGES
-----------------------
   0 C :    0.311709
   1 C :   -0.260871
   2 C :   -0.330421
   3 C :   -0.025582
   4 O :   -0.516027
   5 H :    0.153695
   6 H :    0.141320
   7 H :    0.159711
   8 H :    0.136011
   9 H :    0.206718
  10 H :    0.135958
  11 H :    0.149536
  12 C :   -0.017672
  13 H :    0.143075
  14 H :    0.153105
  15 O :   -0.537704
  16 C :    0.076205
  17 C :    0.076692
  18 C :   -0.293780
  19 C :   -0.036899
  20 O :   -0.519324
  21 H :    0.168895
  22 O :   -0.602530
  23 H :    0.154552
  24 H :    0.165957
  25 H :    0.147437
  26 H :    0.145720
  27 H :    0.148330
  28 H :    0.366182
Sum of atomic charges:   -0.0000000

LOEWDIN ATOMIC CHARGES
----------------------
   0 C :    0.187282
   1 C :   -0.218706
   2 C :   -0.233124
   3 C :   -0.032304
   4 O :   -0.320184
   5 H :    0.101225
   6 H :    0.111825
   7 H :    0.126008
   8 H :    0.111914
   9 H :    0.136542
  10 H :    0.094957
  11 H :    0.105044
  12 C :   -0.041556
  13 H :    0.106918
  14 H :    0.107588
  15 O :   -0.338968
  16 C :    0.009352
  17 C :    0.036515
  18 C :   -0.238898
  19 C :   -0.040755
  20 O :   -0.323017
  21 H :    0.118373
  22 O :   -0.413706
  23 H :    0.116942
  24 H :    0.128609
  25 H :    0.114591
  26 H :    0.100187
  27 H :    0.103526
  28 H :    0.283820

  Mayer bond orders larger than 0.100000
B(  0-C ,  1-C ) :   0.9287 B(  0-C ,  4-O ) :   0.9117 B(  0-C ,  5-H ) :   0.9318
B(  0-C , 15-O ) :   0.8445 B(  1-C ,  2-C ) :   0.9571 B(  1-C ,  6-H ) :   0.9363
B(  1-C ,  7-H ) :   0.9360 B(  2-C ,  3-C ) :   0.9562 B(  2-C ,  8-H ) :   0.9440
B(  2-C ,  9-H ) :   0.9052 B(  3-C ,  4-O ) :   0.8250 B(  3-C , 10-H ) :   0.9257
B(  3-C , 11-H ) :   0.9402 B( 12-C , 13-H ) :   0.9205 B( 12-C , 14-H ) :   0.9105
B( 12-C , 15-O ) :   0.8509 B( 12-C , 16-C ) :   0.8930 B( 16-C , 17-C ) :   0.8938
B( 16-C , 20-O ) :   0.8458 B( 16-C , 21-H ) :   0.9242 B( 17-C , 18-C ) :   0.9098
B( 17-C , 22-O ) :   0.8914 B( 17-C , 23-H ) :   0.9336 B( 18-C , 19-C ) :   0.9450
B( 18-C , 24-H ) :   0.9368 B( 18-C , 25-H ) :   0.9336 B( 19-C , 20-O ) :   0.8408
B( 19-C , 26-H ) :   0.9215 B( 19-C , 27-H ) :   0.9378 B( 22-O , 28-H ) :   0.7945

FINAL SINGLE POINT ENERGY      -652.859173895468

DIPOLE MOMENT
-------------
                                X             Y             Z
Electronic contribution:     -3.84659      -1.57743      -2.18881
Nuclear contribution   :      4.60094       1.92761       2.79127
                        -----------------------------------------
Total Dipole Moment    :      0.75435       0.35018       0.60246
                        -----------------------------------------
Magnitude (a.u.)       :      1.02695
Magnitude (Debye)      :      2.61031

Rotational constants in cm-1:     0.051579     0.016614     0.015144
Rotational constants in MHz :  1546.289101   498.060432   454.007934

                             ****ORCA TERMINATED NORMALLY****
TOTAL RUN TIME: 0 days 0 hours 29 minutes 7 seconds 125 msec
