                         Program Version 4.2.0 -  RELEASE  -
|  1> # Test redundant internal optimization
|  2> #
|  3> ! RKS B3LYP  Opt TightSCF SmallPrint
|  4>
|  5> %basis
|  6>         Basis "6-31G"
|  7> end
|  8>
|  9> %geom
| 10> Constraints
| 11> { D 4  0  15  12  345.0   C } # D for Dihedral angle
| 12> { D 0  15  12  16  120.0   C } # D for Dihedral angle
| 13> { D 0  4  3  2   C } # D for Dihedral angle
| 14> { D 4  3  2  1   C } # D for Dihedral angle
| 15> { D 3  2  1  0   C } # D for Dihedral angle
| 16> { D 2  1  0  4   C } # D for Dihedral angle
| 17> { D 1  0  4  3   C } # D for Dihedral angle
| 18> { D 16  20  19  18   C } # D for Dihedral angle
| 19> { D 20  19  18  17   C } # D for Dihedral angle
| 20> { D 19  18  17  16   C } # D for Dihedral angle
| 21> { D 18  17  16  20   C } # D for Dihedral angle
| 22> { D 17  16  20  19   C } # D for Dihedral angle
| 23> { D 15  12  16  20   C } # D for Dihedral angle
| 24> end
| 25> end
| 26>
| 27>
| 28> #%pal
| 29> #nprocs 8
| 30> #end
| 31>
| 32> * xyz 0 1
| 33> C  -21.048   26.222   46.251
| 34> C  -20.361   27.558   45.944
| 35> C  -20.329   28.222   47.341
| 36> C  -20.110   27.022   48.296
| 37> O  -20.473   25.807   47.535
| 38> H  -20.833   25.428   45.533
| 39> H  -19.344   27.382   45.576
| 40> H  -20.898   28.157   45.201
| 41> H  -19.543   28.978   47.434
| 42> H  -21.289   28.710   47.548
| 43> H  -20.733   27.082   49.195
| 44> H  -19.064   26.913   48.597
| 45> C  -23.221   25.764   47.645
| 46> H  -23.951   25.003   47.345
| 47> H  -22.451   25.278   48.258
| 48> O  -22.586   26.394   46.375
| 49> C  -23.944   26.811   48.537
| 50> C  -24.457   26.177   49.835
| 51> C  -23.166   26.116   50.686
| 52> C  -22.409   27.402   50.268
| 53> O  -23.001   27.841   48.986
| 54> H  -24.712   27.315   47.946
| 55> O  -25.510   27.104   50.501
| 56> H  -24.911   25.192   49.682
| 57> H  -23.368   26.081   51.761
| 58> H  -22.585   25.224   50.425
| 59> H  -21.336   27.230   50.127
| 60> H  -22.547   28.218   50.983
| 61> H  -25.076   28.097   50.664
| 62> *
| 63>
| 64>                          ****END OF INPUT****
 Total Charge           Charge          ....    0
 Multiplicity           Mult            ....    1
 Number of Electrons    NEL             ....  102
FINAL SINGLE POINT ENERGY      -652.806835552390
FINAL SINGLE POINT ENERGY      -652.835131259837
FINAL SINGLE POINT ENERGY      -652.856233012167
FINAL SINGLE POINT ENERGY      -652.860412708037
FINAL SINGLE POINT ENERGY      -652.861059958410
FINAL SINGLE POINT ENERGY      -652.861170337338
FINAL SINGLE POINT ENERGY      -652.861180788615
FINAL SINGLE POINT ENERGY      -652.861180865227
                    ***********************HURRAY********************

CARTESIAN COORDINATES (ANGSTROEM)
---------------------------------
  C    -21.091140   26.260483   46.269233
  C    -20.517454   27.628280   45.900247
  C    -20.202455   28.224179   47.291688
  C    -19.758804   26.995688   48.110851
  O    -20.261820   25.807469   47.358385
  H    -20.971191   25.503462   45.487201
  H    -19.606262   27.481392   45.308731
  H    -21.226472   28.228714   45.325980
  H    -19.426055   28.995065   47.250568
  H    -21.110278   28.651374   47.723244
  H    -20.172916   26.977775   49.118192
  H    -18.671537   26.881126   48.163265
  C    -23.130384   25.732196   47.694171
  H    -23.901395   25.040437   47.330098
  H    -22.373531   25.157519   48.242948
  O    -22.517171   26.356967   46.539080
  C    -23.807711   26.768298   48.593111
  C    -24.521201   26.196180   49.827267
  C    -23.368550   26.152898   50.862685
  C    -22.530253   27.405754   50.514689
  O    -22.918930   27.803369   49.133563
  H    -24.524921   27.313575   47.968826
  O    -25.603801   27.065078   50.256968
  H    -24.983507   25.222477   49.659044
  H    -23.761304   26.170278   51.882121
  H    -22.781467   25.237229   50.731828
  H    -21.455215   27.215081   50.553222
  H    -22.755821   28.257632   51.164134
  H    -25.304454   27.998025   50.213659

 Multiplicity           Mult            ....    1
 Number of Electrons    NEL             ....  102
 Basis Dimension        Dim             ....  149

ORBITAL ENERGIES
----------------

  NO   OCC          E(Eh)            E(eV)
   0   2.0000     -19.151749      -521.1456
   1   2.0000     -19.146471      -521.0020
   2   2.0000     -19.141283      -520.8608
   3   2.0000     -19.134084      -520.6649
   4   2.0000     -10.274765      -279.5906
   5   2.0000     -10.245959      -278.8067
   6   2.0000     -10.237204      -278.5685
   7   2.0000     -10.234217      -278.4872
   8   2.0000     -10.230085      -278.3748
   9   2.0000     -10.224543      -278.2240
  10   2.0000     -10.193521      -277.3798
  11   2.0000     -10.178308      -276.9658
  12   2.0000     -10.175009      -276.8761
  13   2.0000      -1.049938       -28.5703
  14   2.0000      -1.039585       -28.2885
  15   2.0000      -1.010064       -27.4852
  16   2.0000      -0.990058       -26.9408
  17   2.0000      -0.789917       -21.4947
  18   2.0000      -0.781071       -21.2540
  19   2.0000      -0.768635       -20.9156
  20   2.0000      -0.732638       -19.9361
  21   2.0000      -0.674014       -18.3408
  22   2.0000      -0.609569       -16.5872
  23   2.0000      -0.600425       -16.3384
  24   2.0000      -0.590064       -16.0565
  25   2.0000      -0.573976       -15.6187
  26   2.0000      -0.524962       -14.2850
  27   2.0000      -0.514232       -13.9930
  28   2.0000      -0.492758       -13.4086
  29   2.0000      -0.485581       -13.2133
  30   2.0000      -0.481254       -13.0956
  31   2.0000      -0.460593       -12.5334
  32   2.0000      -0.450154       -12.2493
  33   2.0000      -0.443411       -12.0658
  34   2.0000      -0.420957       -11.4548
  35   2.0000      -0.406268       -11.0551
  36   2.0000      -0.399028       -10.8581
  37   2.0000      -0.397065       -10.8047
  38   2.0000      -0.375728       -10.2241
  39   2.0000      -0.368134       -10.0174
  40   2.0000      -0.362280        -9.8581
  41   2.0000      -0.351102        -9.5540
  42   2.0000      -0.345140        -9.3917
  43   2.0000      -0.333751        -9.0818
  44   2.0000      -0.327519        -8.9123
  45   2.0000      -0.311030        -8.4636
  46   2.0000      -0.294938        -8.0257
  47   2.0000      -0.275875        -7.5070
  48   2.0000      -0.263919        -7.1816
  49   2.0000      -0.260397        -7.0858
  50   2.0000      -0.238214        -6.4821
  51   0.0000       0.056899         1.5483
  52   0.0000       0.085365         2.3229
  53   0.0000       0.092904         2.5280
  54   0.0000       0.096795         2.6339
  55   0.0000       0.098576         2.6824

MULLIKEN ATOMIC CHARGES
-----------------------
   0 C :    0.315594
   1 C :   -0.262827
   2 C :   -0.317563
   3 C :   -0.022244
   4 O :   -0.518732
   5 H :    0.147974
   6 H :    0.141123
   7 H :    0.158539
   8 H :    0.135812
   9 H :    0.195826
  10 H :    0.143030
  11 H :    0.145746
  12 C :   -0.013701
  13 H :    0.139933
  14 H :    0.153217
  15 O :   -0.538084
  16 C :    0.076586
  17 C :    0.074960
  18 C :   -0.289122
  19 C :   -0.040994
  20 O :   -0.519213
  21 H :    0.167181
  22 O :   -0.601575
  23 H :    0.153914
  24 H :    0.163638
  25 H :    0.147992
  26 H :    0.147964
  27 H :    0.149878
  28 H :    0.365149
Sum of atomic charges:   -0.0000000

LOEWDIN ATOMIC CHARGES
----------------------
   0 C :    0.186284
   1 C :   -0.216971
   2 C :   -0.225989
   3 C :   -0.030419
   4 O :   -0.323100
   5 H :    0.096791
   6 H :    0.111606
   7 H :    0.125479
   8 H :    0.111594
   9 H :    0.133728
  10 H :    0.100255
  11 H :    0.103071
  12 C :   -0.040904
  13 H :    0.105449
  14 H :    0.108327
  15 O :   -0.338873
  16 C :    0.009687
  17 C :    0.036229
  18 C :   -0.238138
  19 C :   -0.040768
  20 O :   -0.325136
  21 H :    0.117801
  22 O :   -0.413157
  23 H :    0.116879
  24 H :    0.127514
  25 H :    0.115719
  26 H :    0.100071
  27 H :    0.103621
  28 H :    0.283350

  Mayer bond orders larger than 0.100000
B(  0-C ,  1-C ) :   0.9366 B(  0-C ,  4-O ) :   0.9109 B(  0-C ,  5-H ) :   0.9296
B(  0-C , 15-O ) :   0.8414 B(  1-C ,  2-C ) :   0.9574 B(  1-C ,  6-H ) :   0.9372
B(  1-C ,  7-H ) :   0.9362 B(  2-C ,  3-C ) :   0.9604 B(  2-C ,  8-H ) :   0.9440
B(  2-C ,  9-H ) :   0.9191 B(  3-C ,  4-O ) :   0.8263 B(  3-C , 10-H ) :   0.9184
B(  3-C , 11-H ) :   0.9403 B( 12-C , 13-H ) :   0.9210 B( 12-C , 14-H ) :   0.9131
B( 12-C , 15-O ) :   0.8485 B( 12-C , 16-C ) :   0.8936 B( 16-C , 17-C ) :   0.8932
B( 16-C , 20-O ) :   0.8486 B( 16-C , 21-H ) :   0.9248 B( 17-C , 18-C ) :   0.9119
B( 17-C , 22-O ) :   0.8918 B( 17-C , 23-H ) :   0.9338 B( 18-C , 19-C ) :   0.9442
B( 18-C , 24-H ) :   0.9367 B( 18-C , 25-H ) :   0.9342 B( 19-C , 20-O ) :   0.8484
B( 19-C , 26-H ) :   0.9158 B( 19-C , 27-H ) :   0.9374 B( 22-O , 28-H ) :   0.7950

FINAL SINGLE POINT ENERGY      -652.861179481083

DIPOLE MOMENT
-------------
                                X             Y             Z
Electronic contribution:     -3.51490      -1.20576      -1.84071
Nuclear contribution   :      4.19284       1.36685       2.38803
                        -----------------------------------------
Total Dipole Moment    :      0.67794       0.16110       0.54732
                        -----------------------------------------
Magnitude (a.u.)       :      0.88607
Magnitude (Debye)      :      2.25221

Rotational constants in cm-1:     0.052291     0.016363     0.014919
Rotational constants in MHz :  1567.630487   490.538255   447.253197

                             ****ORCA TERMINATED NORMALLY****
TOTAL RUN TIME: 0 days 0 hours 28 minutes 54 seconds 651 msec
