                         Program Version 4.2.0 -  RELEASE  -
|  1> # Test redundant internal optimization
|  2> #
|  3> ! RKS B3LYP  Opt TightSCF SmallPrint
|  4>
|  5> %basis
|  6>         Basis "6-31G"
|  7> end
|  8>
|  9> %geom
| 10> Constraints
| 11> { D 4  0  15  12  255.0   C } # D for Dihedral angle
| 12> { D 0  15  12  16  330.0   C } # D for Dihedral angle
| 13> { D 0  4  3  2   C } # D for Dihedral angle
| 14> { D 4  3  2  1   C } # D for Dihedral angle
| 15> { D 3  2  1  0   C } # D for Dihedral angle
| 16> { D 2  1  0  4   C } # D for Dihedral angle
| 17> { D 1  0  4  3   C } # D for Dihedral angle
| 18> { D 16  20  19  18   C } # D for Dihedral angle
| 19> { D 20  19  18  17   C } # D for Dihedral angle
| 20> { D 19  18  17  16   C } # D for Dihedral angle
| 21> { D 18  17  16  20   C } # D for Dihedral angle
| 22> { D 17  16  20  19   C } # D for Dihedral angle
| 23> { D 15  12  16  20   C } # D for Dihedral angle
| 24> end
| 25> end
| 26>
| 27>
| 28> #%pal
| 29> #nprocs 8
| 30> #end
| 31>
| 32> * xyz 0 1
| 33> C  -21.048   26.222   46.251
| 34> C  -20.361   27.558   45.944
| 35> C  -20.329   28.222   47.341
| 36> C  -20.110   27.022   48.296
| 37> O  -20.473   25.807   47.535
| 38> H  -20.833   25.428   45.533
| 39> H  -19.344   27.382   45.576
| 40> H  -20.898   28.157   45.201
| 41> H  -19.543   28.978   47.434
| 42> H  -21.289   28.710   47.548
| 43> H  -20.733   27.082   49.195
| 44> H  -19.064   26.913   48.597
| 45> C  -23.431   25.260   45.734
| 46> H  -23.621   24.482   46.483
| 47> H  -24.399   25.649   45.390
| 48> O  -22.586   26.394   46.375
| 49> C  -22.727   24.602   44.515
| 50> C  -21.441   23.881   44.937
| 51> C  -21.999   22.562   45.523
| 52> C  -23.226   22.269   44.623
| 53> O  -23.567   23.540   43.950
| 54> H  -22.590   25.351   43.733
| 55> O  -20.557   23.598   43.692
| 56> H  -20.846   24.450   45.660
| 57> H  -21.267   21.749   45.509
| 58> H  -22.310   22.715   46.563
| 59> H  -24.092   21.923   45.196
| 60> H  -23.004   21.538   43.841
| 61> H  -21.132   23.028   42.953
| 62> *
| 63>
| 64>                          ****END OF INPUT****
 Total Charge           Charge          ....    0
 Multiplicity           Mult            ....    1
 Number of Electrons    NEL             ....  102
FINAL SINGLE POINT ENERGY      -652.767975272381
FINAL SINGLE POINT ENERGY      -652.827286987338
FINAL SINGLE POINT ENERGY      -652.847719219526
FINAL SINGLE POINT ENERGY      -652.851211558405
FINAL SINGLE POINT ENERGY      -652.851746826509
FINAL SINGLE POINT ENERGY      -652.851856142991
FINAL SINGLE POINT ENERGY      -652.851867653383
FINAL SINGLE POINT ENERGY      -652.851875824945
                    ***********************HURRAY********************

CARTESIAN COORDINATES (ANGSTROEM)
---------------------------------
  C    -20.751199   26.331704   46.298678
  C    -20.304875   27.782591   46.106103
  C    -20.571783   28.388036   47.507032
  C    -20.242133   27.213716   48.456144
  O    -20.273054   25.990302   47.619784
  H    -20.301861   25.629236   45.603520
  H    -19.234404   27.805022   45.869906
  H    -20.858272   28.279251   45.307148
  H    -19.958463   29.271083   47.707822
  H    -21.625802   28.667324   47.590030
  H    -20.966372   27.103038   49.267792
  H    -19.234504   27.279767   48.878362
  C    -23.037826   25.299557   45.643107
  H    -23.330228   24.593668   46.432292
  H    -23.936247   25.839660   45.336429
  O    -22.190058   26.321184   46.252457
  C    -22.577317   24.467002   44.424179
  C    -21.384024   23.506144   44.587562
  C    -22.028220   22.327540   45.381577
  C    -23.465723   22.277429   44.803245
  O    -23.709566   23.577955   44.142273
  H    -22.434883   25.103497   43.545777
  O    -20.908849   23.082067   43.279120
  H    -20.508762   23.907262   45.086950
  H    -21.467929   21.403904   45.217813
  H    -22.029515   22.550430   46.453559
  H    -24.228542   22.124087   45.572465
  H    -23.581465   21.502412   44.039098
  H    -21.678124   22.847136   42.717776

 Multiplicity           Mult            ....    1
 Number of Electrons    NEL             ....  102
 Basis Dimension        Dim             ....  149

ORBITAL ENERGIES
----------------

  NO   OCC          E(Eh)            E(eV)
   0   2.0000     -19.152310      -521.1608
   1   2.0000     -19.142444      -520.8924
   2   2.0000     -19.138906      -520.7961
   3   2.0000     -19.135231      -520.6961
   4   2.0000     -10.278620      -279.6955
   5   2.0000     -10.246359      -278.8176
   6   2.0000     -10.242848      -278.7221
   7   2.0000     -10.236569      -278.5512
   8   2.0000     -10.233000      -278.4541
   9   2.0000     -10.221816      -278.1497
  10   2.0000     -10.192890      -277.3626
  11   2.0000     -10.181443      -277.0512
  12   2.0000     -10.181184      -277.0441
  13   2.0000      -1.049147       -28.5487
  14   2.0000      -1.043487       -28.3947
  15   2.0000      -1.012072       -27.5399
  16   2.0000      -0.989346       -26.9215
  17   2.0000      -0.785744       -21.3812
  18   2.0000      -0.780637       -21.2422
  19   2.0000      -0.768574       -20.9140
  20   2.0000      -0.735612       -20.0170
  21   2.0000      -0.677294       -18.4301
  22   2.0000      -0.609355       -16.5814
  23   2.0000      -0.605198       -16.4683
  24   2.0000      -0.594746       -16.1838
  25   2.0000      -0.577980       -15.7276
  26   2.0000      -0.526331       -14.3222
  27   2.0000      -0.521920       -14.2022
  28   2.0000      -0.499284       -13.5862
  29   2.0000      -0.479964       -13.0605
  30   2.0000      -0.472972       -12.8702
  31   2.0000      -0.459930       -12.5153
  32   2.0000      -0.449051       -12.2193
  33   2.0000      -0.430891       -11.7251
  34   2.0000      -0.428035       -11.6474
  35   2.0000      -0.421803       -11.4779
  36   2.0000      -0.398698       -10.8491
  37   2.0000      -0.397349       -10.8124
  38   2.0000      -0.374550       -10.1920
  39   2.0000      -0.373709       -10.1691
  40   2.0000      -0.364413        -9.9162
  41   2.0000      -0.352675        -9.5968
  42   2.0000      -0.346605        -9.4316
  43   2.0000      -0.334285        -9.0964
  44   2.0000      -0.315791        -8.5931
  45   2.0000      -0.314404        -8.5554
  46   2.0000      -0.302926        -8.2430
  47   2.0000      -0.275710        -7.5024
  48   2.0000      -0.266273        -7.2456
  49   2.0000      -0.249849        -6.7987
  50   2.0000      -0.242465        -6.5978
  51   0.0000       0.060978         1.6593
  52   0.0000       0.073887         2.0106
  53   0.0000       0.093055         2.5322
  54   0.0000       0.096696         2.6312
  55   0.0000       0.101875         2.7721

MULLIKEN ATOMIC CHARGES
-----------------------
   0 C :    0.276375
   1 C :   -0.247134
   2 C :   -0.295859
   3 C :   -0.001621
   4 O :   -0.508501
   5 H :    0.140030
   6 H :    0.141581
   7 H :    0.147709
   8 H :    0.137365
   9 H :    0.163789
  10 H :    0.148800
  11 H :    0.140148
  12 C :    0.020548
  13 H :    0.135430
  14 H :    0.168335
  15 O :   -0.537409
  16 C :    0.021879
  17 C :    0.075156
  18 C :   -0.306587
  19 C :   -0.034719
  20 O :   -0.520869
  21 H :    0.162802
  22 O :   -0.600704
  23 H :    0.176935
  24 H :    0.165797
  25 H :    0.163622
  26 H :    0.152555
  27 H :    0.149454
  28 H :    0.365092
Sum of atomic charges:    0.0000000

LOEWDIN ATOMIC CHARGES
----------------------
   0 C :    0.172312
   1 C :   -0.216362
   2 C :   -0.215682
   3 C :   -0.026955
   4 O :   -0.326806
   5 H :    0.097468
   6 H :    0.111215
   7 H :    0.119623
   8 H :    0.112175
   9 H :    0.119992
  10 H :    0.105901
  11 H :    0.101129
  12 C :   -0.035494
  13 H :    0.097753
  14 H :    0.122778
  15 O :   -0.335754
  16 C :    0.004397
  17 C :    0.031589
  18 C :   -0.241825
  19 C :   -0.040708
  20 O :   -0.323853
  21 H :    0.114740
  22 O :   -0.413957
  23 H :    0.121720
  24 H :    0.128380
  25 H :    0.122390
  26 H :    0.106944
  27 H :    0.103907
  28 H :    0.282983

  Mayer bond orders larger than 0.100000
B(  0-C ,  1-C ) :   0.9415 B(  0-C ,  4-O ) :   0.9266 B(  0-C ,  5-H ) :   0.9021
B(  0-C , 15-O ) :   0.8533 B(  1-C ,  2-C ) :   0.9588 B(  1-C ,  6-H ) :   0.9394
B(  1-C ,  7-H ) :   0.9386 B(  2-C ,  3-C ) :   0.9543 B(  2-C ,  8-H ) :   0.9460
B(  2-C ,  9-H ) :   0.9433 B(  3-C ,  4-O ) :   0.8370 B(  3-C , 10-H ) :   0.9355
B(  3-C , 11-H ) :   0.9401 B( 12-C , 13-H ) :   0.9232 B( 12-C , 14-H ) :   0.9286
B( 12-C , 15-O ) :   0.8412 B( 12-C , 16-C ) :   0.8838 B( 16-C , 17-C ) :   0.9054
B( 16-C , 20-O ) :   0.8263 B( 16-C , 21-H ) :   0.9231 B( 17-C , 18-C ) :   0.9094
B( 17-C , 22-O ) :   0.8881 B( 17-C , 23-H ) :   0.9119 B( 18-C , 19-C ) :   0.9421
B( 18-C , 24-H ) :   0.9368 B( 18-C , 25-H ) :   0.9307 B( 19-C , 20-O ) :   0.8355
B( 19-C , 26-H ) :   0.9343 B( 19-C , 27-H ) :   0.9375 B( 22-O , 28-H ) :   0.7933

FINAL SINGLE POINT ENERGY      -652.851879395946

DIPOLE MOMENT
-------------
                                X             Y             Z
Electronic contribution:     -1.11599      -2.07785      -2.82389
Nuclear contribution   :      1.02005       2.15793       3.01116
                        -----------------------------------------
Total Dipole Moment    :     -0.09594       0.08008       0.18727
                        -----------------------------------------
Magnitude (a.u.)       :      0.22514
Magnitude (Debye)      :      0.57226

Rotational constants in cm-1:     0.056986     0.012819     0.012498
Rotational constants in MHz :  1708.408476   384.309263   374.672780

                             ****ORCA TERMINATED NORMALLY****
TOTAL RUN TIME: 0 days 0 hours 25 minutes 49 seconds 734 msec
