                         Program Version 4.2.0 -  RELEASE  -
|  1> # Test redundant internal optimization
|  2> #
|  3> ! RKS B3LYP  Opt TightSCF SmallPrint
|  4>
|  5> %basis
|  6>         Basis "6-31G"
|  7> end
|  8>
|  9> %geom
| 10> Constraints
| 11> { D 4  0  15  12  180.0   C } # D for Dihedral angle
| 12> { D 0  15  12  16  30.0   C } # D for Dihedral angle
| 13> { D 0  4  3  2   C } # D for Dihedral angle
| 14> { D 4  3  2  1   C } # D for Dihedral angle
| 15> { D 3  2  1  0   C } # D for Dihedral angle
| 16> { D 2  1  0  4   C } # D for Dihedral angle
| 17> { D 1  0  4  3   C } # D for Dihedral angle
| 18> { D 16  20  19  18   C } # D for Dihedral angle
| 19> { D 20  19  18  17   C } # D for Dihedral angle
| 20> { D 19  18  17  16   C } # D for Dihedral angle
| 21> { D 18  17  16  20   C } # D for Dihedral angle
| 22> { D 17  16  20  19   C } # D for Dihedral angle
| 23> { D 15  12  16  20   C } # D for Dihedral angle
| 24> end
| 25> end
| 26>
| 27>
| 28> #%pal
| 29> #nprocs 8
| 30> #end
| 31>
| 32> * xyz 0 1
| 33> C  -21.048   26.222   46.251
| 34> C  -20.361   27.558   45.944
| 35> C  -20.329   28.222   47.341
| 36> C  -20.110   27.022   48.296
| 37> O  -20.473   25.807   47.535
| 38> H  -20.833   25.428   45.533
| 39> H  -19.344   27.382   45.576
| 40> H  -20.898   28.157   45.201
| 41> H  -19.543   28.978   47.434
| 42> H  -21.289   28.710   47.548
| 43> H  -20.733   27.082   49.195
| 44> H  -19.064   26.913   48.597
| 45> C  -23.309   26.834   45.072
| 46> H  -24.332   26.437   45.074
| 47> H  -23.365   27.928   45.015
| 48> O  -22.586   26.394   46.375
| 49> C  -22.592   26.329   43.789
| 50> C  -23.264   26.877   42.525
| 51> C  -22.695   28.314   42.464
| 52> C  -21.253   28.144   43.004
| 53> O  -21.224   26.854   43.726
| 54> H  -22.517   25.241   43.825
| 55> O  -22.816   26.056   41.284
| 56> H  -24.358   26.855   42.576
| 57> H  -22.715   28.737   41.454
| 58> H  -23.276   28.977   43.116
| 59> H  -20.965   28.947   43.692
| 60> H  -20.511   28.082   42.202
| 61> H  -21.723   26.065   41.213
| 62> *
| 63>
| 64>                          ****END OF INPUT****
 Total Charge           Charge          ....    0
 Multiplicity           Mult            ....    1
 Number of Electrons    NEL             ....  102
FINAL SINGLE POINT ENERGY      -652.810844185742
FINAL SINGLE POINT ENERGY      -652.836710225148
FINAL SINGLE POINT ENERGY      -652.850537427468
FINAL SINGLE POINT ENERGY      -652.852677321705
FINAL SINGLE POINT ENERGY      -652.853100484380
FINAL SINGLE POINT ENERGY      -652.853150876256
FINAL SINGLE POINT ENERGY      -652.853155604728
                    ***********************HURRAY********************

CARTESIAN COORDINATES (ANGSTROEM)
---------------------------------
  C    -20.858119   26.210248   46.292997
  C    -20.105349   27.531732   46.138981
  C    -20.347754   28.207538   47.515242
  C    -20.345617   27.003523   48.480774
  O    -20.567363   25.807047   47.636684
  H    -20.551097   25.408871   45.620504
  H    -19.040104   27.317875   45.989757
  H    -20.449883   28.128365   45.297898
  H    -19.577579   28.943989   47.763730
  H    -21.321437   28.706456   47.521199
  H    -21.137810   27.050741   49.232995
  H    -19.381560   26.860861   48.979324
  C    -23.047610   26.808055   45.069294
  H    -24.035459   26.348508   45.181231
  H    -23.179986   27.901382   45.105852
  O    -22.311705   26.395454   46.252716
  C    -22.496052   26.415097   43.690827
  C    -23.363687   26.922297   42.527596
  C    -22.808626   28.358178   42.320719
  C    -21.299272   28.197022   42.629049
  O    -21.157521   26.927581   43.389384
  H    -22.409627   25.323538   43.644451
  O    -23.187194   26.098718   41.344515
  H    -24.434608   26.901515   42.733855
  H    -23.001818   28.701446   41.301486
  H    -23.286577   29.055417   43.017141
  H    -20.898167   29.019305   43.230244
  H    -20.690609   28.096365   41.726023
  H    -22.233811   25.904876   41.222533

 Multiplicity           Mult            ....    1
 Number of Electrons    NEL             ....  102
 Basis Dimension        Dim             ....  149

ORBITAL ENERGIES
----------------

  NO   OCC          E(Eh)            E(eV)
   0   2.0000     -19.158332      -521.3247
   1   2.0000     -19.147530      -521.0308
   2   2.0000     -19.131102      -520.5837
   3   2.0000     -19.130618      -520.5706
   4   2.0000     -10.270590      -279.4770
   5   2.0000     -10.253236      -279.0047
   6   2.0000     -10.244843      -278.7764
   7   2.0000     -10.243842      -278.7491
   8   2.0000     -10.236411      -278.5469
   9   2.0000     -10.217348      -278.0282
  10   2.0000     -10.200242      -277.5627
  11   2.0000     -10.178831      -276.9801
  12   2.0000     -10.173505      -276.8352
  13   2.0000      -1.051113       -28.6022
  14   2.0000      -1.041663       -28.3451
  15   2.0000      -1.017361       -27.6838
  16   2.0000      -0.982806       -26.7435
  17   2.0000      -0.794785       -21.6272
  18   2.0000      -0.777279       -21.1508
  19   2.0000      -0.772974       -21.0337
  20   2.0000      -0.730056       -19.8658
  21   2.0000      -0.678889       -18.4735
  22   2.0000      -0.615450       -16.7472
  23   2.0000      -0.609182       -16.5767
  24   2.0000      -0.590813       -16.0768
  25   2.0000      -0.566655       -15.4195
  26   2.0000      -0.533499       -14.5172
  27   2.0000      -0.515370       -14.0239
  28   2.0000      -0.496233       -13.5032
  29   2.0000      -0.485572       -13.2131
  30   2.0000      -0.477682       -12.9984
  31   2.0000      -0.459024       -12.4907
  32   2.0000      -0.450318       -12.2538
  33   2.0000      -0.444096       -12.0845
  34   2.0000      -0.428326       -11.6553
  35   2.0000      -0.410673       -11.1750
  36   2.0000      -0.408081       -11.1045
  37   2.0000      -0.396695       -10.7946
  38   2.0000      -0.383252       -10.4288
  39   2.0000      -0.371082       -10.0977
  40   2.0000      -0.362602        -9.8669
  41   2.0000      -0.353213        -9.6114
  42   2.0000      -0.345972        -9.4144
  43   2.0000      -0.339906        -9.2493
  44   2.0000      -0.320975        -8.7342
  45   2.0000      -0.305657        -8.3173
  46   2.0000      -0.296838        -8.0774
  47   2.0000      -0.281683        -7.6650
  48   2.0000      -0.256903        -6.9907
  49   2.0000      -0.249275        -6.7831
  50   2.0000      -0.241675        -6.5763
  51   0.0000       0.051844         1.4108
  52   0.0000       0.077795         2.1169
  53   0.0000       0.086109         2.3432
  54   0.0000       0.089724         2.4415
  55   0.0000       0.099534         2.7085

MULLIKEN ATOMIC CHARGES
-----------------------
   0 C :    0.313950
   1 C :   -0.265018
   2 C :   -0.305420
   3 C :    0.002879
   4 O :   -0.503242
   5 H :    0.151501
   6 H :    0.142229
   7 H :    0.152223
   8 H :    0.136556
   9 H :    0.151647
  10 H :    0.150323
  11 H :    0.138969
  12 C :    0.016677
  13 H :    0.154127
  14 H :    0.119865
  15 O :   -0.531526
  16 C :    0.037818
  17 C :    0.073224
  18 C :   -0.293206
  19 C :   -0.034902
  20 O :   -0.523938
  21 H :    0.171454
  22 O :   -0.598022
  23 H :    0.160057
  24 H :    0.165573
  25 H :    0.149479
  26 H :    0.145706
  27 H :    0.154962
  28 H :    0.366054
Sum of atomic charges:   -0.0000000

LOEWDIN ATOMIC CHARGES
----------------------
   0 C :    0.190940
   1 C :   -0.227719
   2 C :   -0.221510
   3 C :   -0.025341
   4 O :   -0.302774
   5 H :    0.103520
   6 H :    0.114712
   7 H :    0.117431
   8 H :    0.111469
   9 H :    0.112972
  10 H :    0.106862
  11 H :    0.100580
  12 C :   -0.039674
  13 H :    0.118328
  14 H :    0.087795
  15 O :   -0.341515
  16 C :   -0.000110
  17 C :    0.038116
  18 C :   -0.239980
  19 C :   -0.039074
  20 O :   -0.329084
  21 H :    0.117886
  22 O :   -0.410775
  23 H :    0.119110
  24 H :    0.128812
  25 H :    0.115623
  26 H :    0.102485
  27 H :    0.106758
  28 H :    0.284157

  Mayer bond orders larger than 0.100000
B(  0-C ,  1-C ) :   0.9350 B(  0-C ,  4-O ) :   0.9294 B(  0-C ,  5-H ) :   0.9218
B(  0-C , 15-O ) :   0.8124 B(  1-C ,  2-C ) :   0.9438 B(  1-C ,  6-H ) :   0.9369
B(  1-C ,  7-H ) :   0.9251 B(  2-C ,  3-C ) :   0.9541 B(  2-C ,  8-H ) :   0.9454
B(  2-C ,  9-H ) :   0.9464 B(  3-C ,  4-O ) :   0.8360 B(  3-C , 10-H ) :   0.9357
B(  3-C , 11-H ) :   0.9401 B( 12-C , 13-H ) :   0.9223 B( 12-C , 14-H ) :   0.9195
B( 12-C , 15-O ) :   0.8635 B( 12-C , 16-C ) :   0.8922 B( 16-C , 17-C ) :   0.8942
B( 16-C , 20-O ) :   0.8434 B( 16-C , 21-H ) :   0.9214 B( 17-C , 18-C ) :   0.9117
B( 17-C , 22-O ) :   0.8969 B( 17-C , 23-H ) :   0.9325 B( 18-C , 19-C ) :   0.9416
B( 18-C , 24-H ) :   0.9368 B( 18-C , 25-H ) :   0.9324 B( 19-C , 20-O ) :   0.8394
B( 19-C , 26-H ) :   0.9291 B( 19-C , 27-H ) :   0.9378 B( 22-O , 28-H ) :   0.7938

FINAL SINGLE POINT ENERGY      -652.853145348339

DIPOLE MOMENT
-------------
                                X             Y             Z
Electronic contribution:     -1.07230      -6.03081      -0.63692
Nuclear contribution   :      1.27886       7.53324      -0.02036
                        -----------------------------------------
Total Dipole Moment    :      0.20656       1.50243      -0.65727
                        -----------------------------------------
Magnitude (a.u.)       :      1.65287
Magnitude (Debye)      :      4.20126

Rotational constants in cm-1:     0.063864     0.013689     0.012748
Rotational constants in MHz :  1914.600938   410.384842   382.163794

                             ****ORCA TERMINATED NORMALLY****
TOTAL RUN TIME: 0 days 2 hours 22 minutes 53 seconds 850 msec
