                         Program Version 4.2.0 -  RELEASE  -
|  1> # Test redundant internal optimization
|  2> #
|  3> ! RKS B3LYP  Opt TightSCF SmallPrint
|  4>
|  5> %basis
|  6>         Basis "6-31G"
|  7> end
|  8>
|  9> %geom
| 10> Constraints
| 11> { D 4  0  15  12  255.0   C } # D for Dihedral angle
| 12> { D 0  15  12  16  90.0   C } # D for Dihedral angle
| 13> { D 0  4  3  2   C } # D for Dihedral angle
| 14> { D 4  3  2  1   C } # D for Dihedral angle
| 15> { D 3  2  1  0   C } # D for Dihedral angle
| 16> { D 2  1  0  4   C } # D for Dihedral angle
| 17> { D 1  0  4  3   C } # D for Dihedral angle
| 18> { D 16  20  19  18   C } # D for Dihedral angle
| 19> { D 20  19  18  17   C } # D for Dihedral angle
| 20> { D 19  18  17  16   C } # D for Dihedral angle
| 21> { D 18  17  16  20   C } # D for Dihedral angle
| 22> { D 17  16  20  19   C } # D for Dihedral angle
| 23> { D 15  12  16  20   C } # D for Dihedral angle
| 24> end
| 25> end
| 26>
| 27>
| 28> #%pal
| 29> #nprocs 8
| 30> #end
| 31>
| 32> * xyz 0 1
| 33> C  -21.048   26.222   46.251
| 34> C  -20.361   27.558   45.944
| 35> C  -20.329   28.222   47.341
| 36> C  -20.110   27.022   48.296
| 37> O  -20.473   25.807   47.535
| 38> H  -20.833   25.428   45.533
| 39> H  -19.344   27.382   45.576
| 40> H  -20.898   28.157   45.201
| 41> H  -19.543   28.978   47.434
| 42> H  -21.289   28.710   47.548
| 43> H  -20.733   27.082   49.195
| 44> H  -19.064   26.913   48.597
| 45> C  -23.431   25.260   45.734
| 46> H  -24.384   25.673   45.381
| 47> H  -22.905   24.828   44.872
| 48> O  -22.586   26.394   46.375
| 49> C  -23.738   24.104   46.727
| 50> C  -24.472   22.953   46.031
| 51> C  -23.309   22.230   45.309
| 52> C  -22.127   22.395   46.296
| 53> O  -22.492   23.499   47.209
| 54> H  -24.256   24.510   47.598
| 55> O  -25.125   22.021   47.088
| 56> H  -25.253   23.294   45.342
| 57> H  -23.530   21.180   45.095
| 58> H  -23.090   22.728   44.357
| 59> H  -21.189   22.646   45.788
| 60> H  -21.969   21.506   46.912
| 61> H  -24.361   21.667   47.789
| 62> *
| 63>
| 64>                          ****END OF INPUT****
 Total Charge           Charge          ....    0
 Multiplicity           Mult            ....    1
 Number of Electrons    NEL             ....  102
FINAL SINGLE POINT ENERGY      -652.831973738287
FINAL SINGLE POINT ENERGY      -652.854789943622
FINAL SINGLE POINT ENERGY      -652.859131919337
FINAL SINGLE POINT ENERGY      -652.859828063516
FINAL SINGLE POINT ENERGY      -652.859908851611
FINAL SINGLE POINT ENERGY      -652.859921438185
                    ***********************HURRAY********************

CARTESIAN COORDINATES (ANGSTROEM)
---------------------------------
  C    -21.002177   26.198975   46.214577
  C    -20.456844   27.605002   45.965243
  C    -20.471998   28.212078   47.389667
  C    -20.123503   27.000476   48.281725
  O    -20.382203   25.798384   47.451835
  H    -20.736907   25.444892   45.468143
  H    -19.430824   27.533859   45.584520
  H    -21.064452   28.163141   45.250047
  H    -19.761465   29.036072   47.505383
  H    -21.475384   28.583571   47.618146
  H    -20.736317   26.941754   49.184539
  H    -19.065561   26.968455   48.560246
  C    -23.271691   25.269361   45.730358
  H    -24.205602   25.767738   45.448342
  H    -22.793458   24.892417   44.813078
  O    -22.444946   26.303437   46.319739
  C    -23.587224   24.114988   46.683291
  C    -24.431127   22.998171   46.053034
  C    -23.348074   22.153724   45.329022
  C    -22.128872   22.262357   46.278767
  O    -22.381724   23.431066   47.156169
  H    -24.072687   24.523328   47.574756
  O    -25.118416   22.227229   47.076250
  H    -25.217498   23.354741   45.385596
  H    -23.691573   21.126259   45.187955
  H    -23.127952   22.580762   44.344215
  H    -21.185664   22.414085   45.745338
  H    -22.022737   21.388014   46.928111
  H    -24.505120   22.074664   47.825909

 Multiplicity           Mult            ....    1
 Number of Electrons    NEL             ....  102
 Basis Dimension        Dim             ....  149

ORBITAL ENERGIES
----------------

  NO   OCC          E(Eh)            E(eV)
   0   2.0000     -19.139092      -520.8012
   1   2.0000     -19.138917      -520.7964
   2   2.0000     -19.137957      -520.7703
   3   2.0000     -19.128327      -520.5082
   4   2.0000     -10.273295      -279.5506
   5   2.0000     -10.242965      -278.7253
   6   2.0000     -10.234080      -278.4835
   7   2.0000     -10.230401      -278.3834
   8   2.0000     -10.228713      -278.3374
   9   2.0000     -10.216037      -277.9925
  10   2.0000     -10.189713      -277.2762
  11   2.0000     -10.178885      -276.9815
  12   2.0000     -10.178665      -276.9755
  13   2.0000      -1.046243       -28.4697
  14   2.0000      -1.033793       -28.1309
  15   2.0000      -1.004758       -27.3409
  16   2.0000      -0.988913       -26.9097
  17   2.0000      -0.786433       -21.3999
  18   2.0000      -0.778299       -21.1786
  19   2.0000      -0.764173       -20.7942
  20   2.0000      -0.726765       -19.7763
  21   2.0000      -0.672787       -18.3075
  22   2.0000      -0.603243       -16.4151
  23   2.0000      -0.594364       -16.1735
  24   2.0000      -0.590829       -16.0773
  25   2.0000      -0.579135       -15.7591
  26   2.0000      -0.523477       -14.2445
  27   2.0000      -0.509599       -13.8669
  28   2.0000      -0.493625       -13.4322
  29   2.0000      -0.482049       -13.1172
  30   2.0000      -0.471637       -12.8339
  31   2.0000      -0.455328       -12.3901
  32   2.0000      -0.450841       -12.2680
  33   2.0000      -0.435807       -11.8589
  34   2.0000      -0.421494       -11.4694
  35   2.0000      -0.409025       -11.1301
  36   2.0000      -0.393150       -10.6982
  37   2.0000      -0.392407       -10.6779
  38   2.0000      -0.373353       -10.1595
  39   2.0000      -0.368174       -10.0185
  40   2.0000      -0.354267        -9.6401
  41   2.0000      -0.349808        -9.5187
  42   2.0000      -0.343222        -9.3395
  43   2.0000      -0.333766        -9.0822
  44   2.0000      -0.313175        -8.5219
  45   2.0000      -0.302719        -8.2374
  46   2.0000      -0.297113        -8.0849
  47   2.0000      -0.270829        -7.3696
  48   2.0000      -0.265706        -7.2302
  49   2.0000      -0.249582        -6.7915
  50   2.0000      -0.231316        -6.2944
  51   0.0000       0.062289         1.6950
  52   0.0000       0.086242         2.3468
  53   0.0000       0.087463         2.3800
  54   0.0000       0.101899         2.7728
  55   0.0000       0.109281         2.9737

MULLIKEN ATOMIC CHARGES
-----------------------
   0 C :    0.300690
   1 C :   -0.256610
   2 C :   -0.299368
   3 C :   -0.001270
   4 O :   -0.488982
   5 H :    0.133354
   6 H :    0.140418
   7 H :    0.146622
   8 H :    0.137420
   9 H :    0.161217
  10 H :    0.149271
  11 H :    0.137486
  12 C :   -0.013332
  13 H :    0.147777
  14 H :    0.117350
  15 O :   -0.515885
  16 C :    0.074888
  17 C :    0.075686
  18 C :   -0.295916
  19 C :   -0.027495
  20 O :   -0.500323
  21 H :    0.166315
  22 O :   -0.602049
  23 H :    0.150386
  24 H :    0.162770
  25 H :    0.140107
  26 H :    0.145809
  27 H :    0.147193
  28 H :    0.366469
Sum of atomic charges:    0.0000000

LOEWDIN ATOMIC CHARGES
----------------------
   0 C :    0.178709
   1 C :   -0.219969
   2 C :   -0.216862
   3 C :   -0.027748
   4 O :   -0.308326
   5 H :    0.094944
   6 H :    0.111125
   7 H :    0.118372
   8 H :    0.111672
   9 H :    0.118596
  10 H :    0.106585
  11 H :    0.100008
  12 C :   -0.037782
  13 H :    0.112595
  14 H :    0.088815
  15 O :   -0.325170
  16 C :    0.006505
  17 C :    0.034088
  18 C :   -0.242342
  19 C :   -0.038087
  20 O :   -0.314995
  21 H :    0.119625
  22 O :   -0.414010
  23 H :    0.114424
  24 H :    0.126873
  25 H :    0.110703
  26 H :    0.103853
  27 H :    0.103456
  28 H :    0.284340

  Mayer bond orders larger than 0.100000
B(  0-C ,  1-C ) :   0.9434 B(  0-C ,  4-O ) :   0.9314 B(  0-C ,  5-H ) :   0.9205
B(  0-C , 15-O ) :   0.8359 B(  1-C ,  2-C ) :   0.9589 B(  1-C ,  6-H ) :   0.9392
B(  1-C ,  7-H ) :   0.9382 B(  2-C ,  3-C ) :   0.9526 B(  2-C ,  8-H ) :   0.9456
B(  2-C ,  9-H ) :   0.9443 B(  3-C ,  4-O ) :   0.8447 B(  3-C , 10-H ) :   0.9348
B(  3-C , 11-H ) :   0.9399 B( 12-C , 13-H ) :   0.9293 B( 12-C , 14-H ) :   0.9228
B( 12-C , 15-O ) :   0.8754 B( 12-C , 16-C ) :   0.8810 B( 16-C , 17-C ) :   0.8927
B( 16-C , 20-O ) :   0.8696 B( 16-C , 21-H ) :   0.9244 B( 17-C , 18-C ) :   0.9118
B( 17-C , 22-O ) :   0.8918 B( 17-C , 23-H ) :   0.9331 B( 18-C , 19-C ) :   0.9383
B( 18-C , 24-H ) :   0.9373 B( 18-C , 25-H ) :   0.9333 B( 19-C , 20-O ) :   0.8522
B( 19-C , 26-H ) :   0.9340 B( 19-C , 27-H ) :   0.9377 B( 22-O , 28-H ) :   0.7932

FINAL SINGLE POINT ENERGY      -652.859923478008

DIPOLE MOMENT
-------------
                                X             Y             Z
Electronic contribution:     -2.37442      -2.44937       2.41613
Nuclear contribution   :      2.79935       2.73280      -3.33618
                        -----------------------------------------
Total Dipole Moment    :      0.42493       0.28342      -0.92006
                        -----------------------------------------
Magnitude (a.u.)       :      1.05233
Magnitude (Debye)      :      2.67480

Rotational constants in cm-1:     0.063998     0.012965     0.012499
Rotational constants in MHz :  1918.600870   388.670796   374.712529

                             ****ORCA TERMINATED NORMALLY****
TOTAL RUN TIME: 0 days 0 hours 50 minutes 47 seconds 617 msec
