                         Program Version 4.2.0 -  RELEASE  -
|  1> # Test redundant internal optimization
|  2> #
|  3> ! RKS B3LYP  Opt TightSCF SmallPrint
|  4>
|  5> %basis
|  6>         Basis "6-31G"
|  7> end
|  8>
|  9> %geom
| 10> Constraints
| 11> { D 4  0  15  12  150.0   C } # D for Dihedral angle
| 12> { D 0  15  12  16  285.0   C } # D for Dihedral angle
| 13> { D 0  4  3  2   C } # D for Dihedral angle
| 14> { D 4  3  2  1   C } # D for Dihedral angle
| 15> { D 3  2  1  0   C } # D for Dihedral angle
| 16> { D 2  1  0  4   C } # D for Dihedral angle
| 17> { D 1  0  4  3   C } # D for Dihedral angle
| 18> { D 16  20  19  18   C } # D for Dihedral angle
| 19> { D 20  19  18  17   C } # D for Dihedral angle
| 20> { D 19  18  17  16   C } # D for Dihedral angle
| 21> { D 18  17  16  20   C } # D for Dihedral angle
| 22> { D 17  16  20  19   C } # D for Dihedral angle
| 23> { D 15  12  16  20   C } # D for Dihedral angle
| 24> end
| 25> end
| 26>
| 27>
| 28> #%pal
| 29> #nprocs 8
| 30> #end
| 31>
| 32> * xyz 0 1
| 33> C  -21.048   26.222   46.251
| 34> C  -20.361   27.558   45.944
| 35> C  -20.329   28.222   47.341
| 36> C  -20.110   27.022   48.296
| 37> O  -20.473   25.807   47.535
| 38> H  -20.833   25.428   45.533
| 39> H  -19.344   27.382   45.576
| 40> H  -20.898   28.157   45.201
| 41> H  -19.543   28.978   47.434
| 42> H  -21.289   28.710   47.548
| 43> H  -20.733   27.082   49.195
| 44> H  -19.064   26.913   48.597
| 45> C  -23.210   27.459   45.431
| 46> H  -22.797   27.334   44.423
| 47> H  -24.298   27.331   45.375
| 48> O  -22.586   26.394   46.375
| 49> C  -22.928   28.914   45.899
| 50> C  -23.653   29.933   45.013
| 51> C  -25.094   29.867   45.574
| 52> C  -24.871   29.631   47.088
| 53> O  -23.484   29.139   47.237
| 54> H  -21.849   29.064   45.971
| 55> O  -23.047   31.348   45.221
| 56> H  -23.601   29.689   43.946
| 57> H  -25.669   30.777   45.374
| 58> H  -25.634   29.024   45.126
| 59> H  -25.561   28.888   47.503
| 60> H  -24.950   30.553   47.671
| 61> H  -23.089   31.613   46.284
| 62> *
| 63>
| 64>                          ****END OF INPUT****
 Total Charge           Charge          ....    0
 Multiplicity           Mult            ....    1
 Number of Electrons    NEL             ....  102
FINAL SINGLE POINT ENERGY      -652.805484055707
FINAL SINGLE POINT ENERGY      -652.831743516783
FINAL SINGLE POINT ENERGY      -652.845887648374
FINAL SINGLE POINT ENERGY      -652.848146978726
FINAL SINGLE POINT ENERGY      -652.848582715197
FINAL SINGLE POINT ENERGY      -652.848625470878
FINAL SINGLE POINT ENERGY      -652.848632945767
                    ***********************HURRAY********************

CARTESIAN COORDINATES (ANGSTROEM)
---------------------------------
  C    -21.033158   26.291681   46.204727
  C    -20.106448   27.490916   45.988897
  C    -20.086774   28.148899   47.398689
  C    -20.162800   26.921960   48.334212
  O    -20.659154   25.803809   47.498054
  H    -20.866934   25.469421   45.502199
  H    -19.111809   27.105952   45.737182
  H    -20.412254   28.163811   45.183841
  H    -19.181346   28.741347   47.562796
  H    -20.954594   28.793868   47.553376
  H    -20.852577   27.066847   49.169136
  H    -19.184860   26.615499   48.716821
  C    -23.144233   27.567441   45.442000
  H    -22.841772   27.494126   44.382399
  H    -24.194003   27.267454   45.506018
  O    -22.470568   26.553067   46.228862
  C    -23.005353   29.034513   45.868087
  C    -23.839618   29.973220   44.982047
  C    -25.253374   29.834608   45.614403
  C    -24.940697   29.669751   47.124206
  O    -23.515643   29.274027   47.219289
  H    -21.965580   29.357353   45.865914
  O    -23.341565   31.336955   45.062739
  H    -23.814905   29.723293   43.920686
  H    -25.860578   30.717209   45.397457
  H    -25.767428   28.955148   45.211876
  H    -25.553992   28.901070   47.603026
  H    -25.053915   30.605160   47.680935
  H    -23.170069   31.560595   46.002125

 Multiplicity           Mult            ....    1
 Number of Electrons    NEL             ....  102
 Basis Dimension        Dim             ....  149

ORBITAL ENERGIES
----------------

  NO   OCC          E(Eh)            E(eV)
   0   2.0000     -19.148192      -521.0488
   1   2.0000     -19.146301      -520.9973
   2   2.0000     -19.134997      -520.6897
   3   2.0000     -19.133835      -520.6581
   4   2.0000     -10.277485      -279.6646
   5   2.0000     -10.249500      -278.9031
   6   2.0000     -10.238685      -278.6088
   7   2.0000     -10.237289      -278.5708
   8   2.0000     -10.236069      -278.5376
   9   2.0000     -10.220099      -278.1030
  10   2.0000     -10.195875      -277.4439
  11   2.0000     -10.190373      -277.2942
  12   2.0000     -10.184301      -277.1289
  13   2.0000      -1.048223       -28.5236
  14   2.0000      -1.041802       -28.3489
  15   2.0000      -1.012763       -27.5587
  16   2.0000      -0.987934       -26.8831
  17   2.0000      -0.790724       -21.5167
  18   2.0000      -0.784612       -21.3504
  19   2.0000      -0.771948       -21.0058
  20   2.0000      -0.734536       -19.9877
  21   2.0000      -0.679628       -18.4936
  22   2.0000      -0.611141       -16.6300
  23   2.0000      -0.607232       -16.5236
  24   2.0000      -0.596176       -16.2228
  25   2.0000      -0.576615       -15.6905
  26   2.0000      -0.527564       -14.3557
  27   2.0000      -0.509605       -13.8671
  28   2.0000      -0.499358       -13.5882
  29   2.0000      -0.495214       -13.4755
  30   2.0000      -0.472966       -12.8700
  31   2.0000      -0.460046       -12.5185
  32   2.0000      -0.454020       -12.3545
  33   2.0000      -0.442559       -12.0426
  34   2.0000      -0.430750       -11.7213
  35   2.0000      -0.411499       -11.1975
  36   2.0000      -0.406535       -11.0624
  37   2.0000      -0.399639       -10.8747
  38   2.0000      -0.380428       -10.3520
  39   2.0000      -0.376954       -10.2574
  40   2.0000      -0.361729        -9.8431
  41   2.0000      -0.356406        -9.6983
  42   2.0000      -0.351374        -9.5614
  43   2.0000      -0.338357        -9.2072
  44   2.0000      -0.314930        -8.5697
  45   2.0000      -0.306376        -8.3369
  46   2.0000      -0.289819        -7.8864
  47   2.0000      -0.277032        -7.5384
  48   2.0000      -0.267791        -7.2870
  49   2.0000      -0.253464        -6.8971
  50   2.0000      -0.238186        -6.4814
  51   0.0000       0.059078         1.6076
  52   0.0000       0.082094         2.2339
  53   0.0000       0.083668         2.2767
  54   0.0000       0.089074         2.4238
  55   0.0000       0.094977         2.5845

MULLIKEN ATOMIC CHARGES
-----------------------
   0 C :    0.320713
   1 C :   -0.301461
   2 C :   -0.321466
   3 C :   -0.000432
   4 O :   -0.496008
   5 H :    0.146801
   6 H :    0.151813
   7 H :    0.140248
   8 H :    0.140164
   9 H :    0.188081
  10 H :    0.159120
  11 H :    0.139719
  12 C :    0.002251
  13 H :    0.116651
  14 H :    0.157603
  15 O :   -0.515909
  16 C :    0.049937
  17 C :    0.072954
  18 C :   -0.301058
  19 C :   -0.027086
  20 O :   -0.521288
  21 H :    0.162537
  22 O :   -0.601077
  23 H :    0.154986
  24 H :    0.165704
  25 H :    0.147769
  26 H :    0.157240
  27 H :    0.146724
  28 H :    0.364771
Sum of atomic charges:    0.0000000

LOEWDIN ATOMIC CHARGES
----------------------
   0 C :    0.186742
   1 C :   -0.234868
   2 C :   -0.225474
   3 C :   -0.024846
   4 O :   -0.303350
   5 H :    0.099273
   6 H :    0.120198
   7 H :    0.110187
   8 H :    0.113762
   9 H :    0.126155
  10 H :    0.111587
  11 H :    0.101042
  12 C :   -0.038132
  13 H :    0.089448
  14 H :    0.116706
  15 O :   -0.330061
  16 C :   -0.002837
  17 C :    0.035666
  18 C :   -0.241385
  19 C :   -0.036623
  20 O :   -0.327838
  21 H :    0.113758
  22 O :   -0.413979
  23 H :    0.116287
  24 H :    0.127789
  25 H :    0.114597
  26 H :    0.109818
  27 H :    0.103030
  28 H :    0.283349

  Mayer bond orders larger than 0.100000
B(  0-C ,  1-C ) :   0.9280 B(  0-C ,  4-O ) :   0.9383 B(  0-C ,  5-H ) :   0.9265
B(  0-C , 15-O ) :   0.8452 B(  1-C ,  2-C ) :   0.9503 B(  1-C ,  6-H ) :   0.9323
B(  1-C ,  7-H ) :   0.9269 B(  2-C ,  3-C ) :   0.9505 B(  2-C ,  8-H ) :   0.9454
B(  2-C ,  9-H ) :   0.9222 B(  3-C ,  4-O ) :   0.8353 B(  3-C , 10-H ) :   0.9336
B(  3-C , 11-H ) :   0.9403 B( 12-C , 13-H ) :   0.9110 B( 12-C , 14-H ) :   0.9365
B( 12-C , 15-O ) :   0.8760 B( 12-C , 16-C ) :   0.8678 B( 16-C , 17-C ) :   0.8930
B( 16-C , 20-O ) :   0.8478 B( 16-C , 21-H ) :   0.9122 B( 17-C , 18-C ) :   0.9116
B( 17-C , 22-O ) :   0.8929 B( 17-C , 23-H ) :   0.9319 B( 18-C , 19-C ) :   0.9397
B( 18-C , 24-H ) :   0.9370 B( 18-C , 25-H ) :   0.9329 B( 19-C , 20-O ) :   0.8433
B( 19-C , 26-H ) :   0.9329 B( 19-C , 27-H ) :   0.9375 B( 22-O , 28-H ) :   0.7941

FINAL SINGLE POINT ENERGY      -652.848634146426

DIPOLE MOMENT
-------------
                                X             Y             Z
Electronic contribution:     -0.27602      -2.45334       0.64949
Nuclear contribution   :      0.13191       3.27523      -1.10378
                        -----------------------------------------
Total Dipole Moment    :     -0.14411       0.82189      -0.45429
                        -----------------------------------------
Magnitude (a.u.)       :      0.95008
Magnitude (Debye)      :      2.41491

Rotational constants in cm-1:     0.052172     0.014621     0.014247
Rotational constants in MHz :  1564.073911   438.317029   427.106095

                             ****ORCA TERMINATED NORMALLY****
TOTAL RUN TIME: 0 days 2 hours 20 minutes 36 seconds 815 msec
