                         Program Version 4.2.1 -  RELEASE  -
|  1> # Test redundant internal optimization
|  2> #
|  3> ! RKS B3LYP  Opt TightSCF SmallPrint
|  4>
|  5> %basis
|  6>         Basis "6-31G"
|  7> end
|  8>
|  9> %geom
| 10> Constraints
| 11> { D 4  0  19  14  315.0   C } # D for Dihedral angle
| 12> { D 0  19  14  12  240.0   C } # D for Dihedral angle
| 13> { D 0  4  3  2   C } # D for Dihedral angle
| 14> { D 4  3  2  1   C } # D for Dihedral angle
| 15> { D 3  2  1  0   C } # D for Dihedral angle
| 16> { D 2  1  0  4   C } # D for Dihedral angle
| 17> { D 1  0  4  3   C } # D for Dihedral angle
| 18> { D 14  15  16  17   C } # D for Dihedral angle
| 19> { D 15  16  17  12   C } # D for Dihedral angle
| 20> { D 16  17  12  14   C } # D for Dihedral angle
| 21> { D 17  12  14  15   C } # D for Dihedral angle
| 22> { D 12  14  15  16   C } # D for Dihedral angle
| 23> end
| 24> end
| 25>
| 26>
| 27> #%pal
| 28> #nprocs 8
| 29> #end
| 30>
| 31> * xyz 0 1
| 32> C  -21.048   26.222   46.251
| 33> C  -20.361   27.558   45.944
| 34> C  -20.329   28.222   47.341
| 35> C  -20.110   27.022   48.296
| 36> O  -20.473   25.807   47.535
| 37> H  -20.833   25.428   45.533
| 38> H  -19.344   27.382   45.576
| 39> H  -20.898   28.157   45.201
| 40> H  -19.543   28.978   47.434
| 41> H  -21.289   28.710   47.548
| 42> H  -20.733   27.082   49.195
| 43> H  -19.064   26.913   48.597
| 44> C  -24.162   24.641   46.160
| 45> H  -24.873   24.033   46.740
| 46> C  -23.132   25.318   47.072
| 47> C  -22.150   24.156   47.352
| 48> C  -22.145   23.369   46.018
| 49> O  -23.358   23.786   45.279
| 50> H  -24.717   25.327   45.518
| 51> O  -22.472   26.381   46.366
| 52> H  -23.573   25.731   47.985
| 53> H  -21.151   24.503   47.635
| 54> H  -22.530   23.529   48.169
| 55> H  -22.173   22.284   46.169
| 56> H  -21.284   23.617   45.389
| 57> *
| 58>
| 59>                          ****END OF INPUT****
 Total Charge           Charge          ....    0
 Multiplicity           Mult            ....    1
 Number of Electrons    NEL             ....   86
FINAL SINGLE POINT ENERGY      -538.394337946535
FINAL SINGLE POINT ENERGY      -538.429153394182
FINAL SINGLE POINT ENERGY      -538.431287707618
FINAL SINGLE POINT ENERGY      -538.431668343343
FINAL SINGLE POINT ENERGY      -538.431719762437
FINAL SINGLE POINT ENERGY      -538.431730710523
                    ***********************HURRAY********************

CARTESIAN COORDINATES (ANGSTROEM)
---------------------------------
  C    -20.887964   26.295119   46.213587
  C    -20.461405   27.742790   45.962085
  C    -20.386171   28.302975   47.400959
  C    -19.877982   27.097614   48.224595
  O    -20.128879   25.895166   47.383725
  H    -20.612379   25.581403   45.431346
  H    -19.477014   27.748979   45.480312
  H    -21.175049   28.272660   45.328629
  H    -19.721692   29.168390   47.482415
  H    -21.385714   28.600579   47.729852
  H    -20.400044   26.978401   49.178084
  H    -18.799768   27.129634   48.407091
  C    -24.081745   24.695217   46.024978
  H    -24.938997   24.219105   46.524270
  C    -23.084779   25.236056   47.051397
  C    -22.329715   23.954207   47.453605
  C    -22.275111   23.140590   46.140548
  O    -23.315233   23.711688   45.252141
  H    -24.431237   25.462605   45.333722
  O    -22.318501   26.304271   46.392587
  H    -23.576515   25.706761   47.909057
  H    -21.346469   24.160971   47.872384
  H    -22.935671   23.434028   48.205443
  H    -22.481486   22.075625   46.296601
  H    -21.315483   23.241167   45.623587

 Multiplicity           Mult            ....    1
 Number of Electrons    NEL             ....   86
 Basis Dimension        Dim             ....  127

ORBITAL ENERGIES
----------------

  NO   OCC          E(Eh)            E(eV)
   0   2.0000     -19.146435      -521.0010
   1   2.0000     -19.136837      -520.7398
   2   2.0000     -19.125060      -520.4193
   3   2.0000     -10.279286      -279.7136
   4   2.0000     -10.237398      -278.5737
   5   2.0000     -10.229723      -278.3649
   6   2.0000     -10.217303      -278.0270
   7   2.0000     -10.215403      -277.9752
   8   2.0000     -10.187025      -277.2030
   9   2.0000     -10.184638      -277.1381
  10   2.0000     -10.176813      -276.9252
  11   2.0000      -1.051593       -28.6153
  12   2.0000      -1.010050       -27.4849
  13   2.0000      -0.986008       -26.8306
  14   2.0000      -0.793361       -21.5884
  15   2.0000      -0.773481       -21.0475
  16   2.0000      -0.742060       -20.1925
  17   2.0000      -0.717501       -19.5242
  18   2.0000      -0.614596       -16.7240
  19   2.0000      -0.600829       -16.3494
  20   2.0000      -0.593168       -16.1409
  21   2.0000      -0.562075       -15.2949
  22   2.0000      -0.521151       -14.1812
  23   2.0000      -0.492838       -13.4108
  24   2.0000      -0.487508       -13.2658
  25   2.0000      -0.479499       -13.0478
  26   2.0000      -0.452582       -12.3154
  27   2.0000      -0.444403       -12.0928
  28   2.0000      -0.414781       -11.2868
  29   2.0000      -0.410781       -11.1779
  30   2.0000      -0.406307       -11.0562
  31   2.0000      -0.389451       -10.5975
  32   2.0000      -0.368675       -10.0321
  33   2.0000      -0.363107        -9.8807
  34   2.0000      -0.358195        -9.7470
  35   2.0000      -0.356320        -9.6960
  36   2.0000      -0.345808        -9.4099
  37   2.0000      -0.325546        -8.8586
  38   2.0000      -0.302823        -8.2402
  39   2.0000      -0.290733        -7.9113
  40   2.0000      -0.261212        -7.1079
  41   2.0000      -0.252373        -6.8674
  42   2.0000      -0.232165        -6.3175
  43   0.0000       0.076572         2.0836
  44   0.0000       0.099198         2.6993
  45   0.0000       0.104324         2.8388
  46   0.0000       0.108667         2.9570
  47   0.0000       0.117305         3.1920

MULLIKEN ATOMIC CHARGES
-----------------------
   0 C :    0.306594
   1 C :   -0.259691
   2 C :   -0.298783
   3 C :   -0.011143
   4 O :   -0.518675
   5 H :    0.154380
   6 H :    0.144895
   7 H :    0.163300
   8 H :    0.142190
   9 H :    0.159885
  10 H :    0.143535
  11 H :    0.148130
  12 C :    0.005120
  13 H :    0.118765
  14 C :    0.095588
  15 C :   -0.337101
  16 C :   -0.011006
  17 O :   -0.525603
  18 H :    0.164405
  19 O :   -0.545835
  20 H :    0.134051
  21 H :    0.202893
  22 H :    0.139087
  23 H :    0.138339
  24 H :    0.146680
Sum of atomic charges:    0.0000000

LOEWDIN ATOMIC CHARGES
----------------------
   0 C :    0.181465
   1 C :   -0.212591
   2 C :   -0.215992
   3 C :   -0.030898
   4 O :   -0.329035
   5 H :    0.099054
   6 H :    0.113760
   7 H :    0.127701
   8 H :    0.114475
   9 H :    0.118097
  10 H :    0.102925
  11 H :    0.105027
  12 C :   -0.038586
  13 H :    0.088136
  14 C :    0.047528
  15 C :   -0.248527
  16 C :   -0.033294
  17 O :   -0.335980
  18 H :    0.120497
  19 O :   -0.335019
  20 H :    0.102364
  21 H :    0.144101
  22 H :    0.114226
  23 H :    0.099526
  24 H :    0.101040

  Mayer bond orders larger than 0.100000
B(  0-C ,  1-C ) :   0.9439 B(  0-C ,  4-O ) :   0.8824 B(  0-C ,  5-H ) :   0.9174
B(  0-C , 19-O ) :   0.8580 B(  1-C ,  2-C ) :   0.9557 B(  1-C ,  6-H ) :   0.9392
B(  1-C ,  7-H ) :   0.9357 B(  2-C ,  3-C ) :   0.9562 B(  2-C ,  8-H ) :   0.9448
B(  2-C ,  9-H ) :   0.9445 B(  3-C ,  4-O ) :   0.8307 B(  3-C , 10-H ) :   0.9360
B(  3-C , 11-H ) :   0.9402 B( 12-C , 13-H ) :   0.9135 B( 12-C , 14-C ) :   0.9226
B( 12-C , 17-O ) :   0.8683 B( 12-C , 18-H ) :   0.9321 B( 14-C , 15-C ) :   0.9453
B( 14-C , 19-O ) :   0.8287 B( 14-C , 20-H ) :   0.9315 B( 15-C , 16-C ) :   0.9452
B( 15-C , 21-H ) :   0.9021 B( 15-C , 22-H ) :   0.9353 B( 16-C , 17-O ) :   0.8564
B( 16-C , 23-H ) :   0.9333 B( 16-C , 24-H ) :   0.9332

FINAL SINGLE POINT ENERGY      -538.431731564831

DIPOLE MOMENT
-------------
                                X             Y             Z
Electronic contribution:     -1.32664      -1.74486      -2.17962
Nuclear contribution   :      1.68525       2.39348       3.10506
                        -----------------------------------------
Total Dipole Moment    :      0.35861       0.64862       0.92544
                        -----------------------------------------
Magnitude (a.u.)       :      1.18564
Magnitude (Debye)      :      3.01366

Rotational constants in cm-1:     0.081519     0.022844     0.021245
Rotational constants in MHz :  2443.881057   684.855895   636.911207

                             ****ORCA TERMINATED NORMALLY****
TOTAL RUN TIME: 0 days 0 hours 7 minutes 14 seconds 6 msec
