                         Program Version 4.2.0 -  RELEASE  -
|  1> # Test redundant internal optimization
|  2> #
|  3> ! RKS B3LYP  Opt TightSCF SmallPrint
|  4>
|  5> %basis
|  6>         Basis "6-31G"
|  7> end
|  8>
|  9> %geom
| 10> Constraints
| 11> { D 4  0  15  12  75.0   C } # D for Dihedral angle
| 12> { D 0  15  12  16  135.0   C } # D for Dihedral angle
| 13> { D 0  4  3  2   C } # D for Dihedral angle
| 14> { D 4  3  2  1   C } # D for Dihedral angle
| 15> { D 3  2  1  0   C } # D for Dihedral angle
| 16> { D 2  1  0  4   C } # D for Dihedral angle
| 17> { D 1  0  4  3   C } # D for Dihedral angle
| 18> { D 16  20  19  18   C } # D for Dihedral angle
| 19> { D 20  19  18  17   C } # D for Dihedral angle
| 20> { D 19  18  17  16   C } # D for Dihedral angle
| 21> { D 18  17  16  20   C } # D for Dihedral angle
| 22> { D 17  16  20  19   C } # D for Dihedral angle
| 23> { D 15  12  16  20   C } # D for Dihedral angle
| 24> end
| 25> end
| 26>
| 27>
| 28> #%pal
| 29> #nprocs 8
| 30> #end
| 31>
| 32> * xyz 0 1
| 33> C  -21.048   26.222   46.251
| 34> C  -20.361   27.558   45.944
| 35> C  -20.329   28.222   47.341
| 36> C  -20.110   27.022   48.296
| 37> O  -20.473   25.807   47.535
| 38> H  -20.833   25.428   45.533
| 39> H  -19.344   27.382   45.576
| 40> H  -20.898   28.157   45.201
| 41> H  -19.543   28.978   47.434
| 42> H  -21.289   28.710   47.548
| 43> H  -20.733   27.082   49.195
| 44> H  -19.064   26.913   48.597
| 45> C  -23.049   27.675   47.122
| 46> H  -23.391   27.403   48.129
| 47> H  -22.217   28.383   47.222
| 48> O  -22.586   26.394   46.375
| 49> C  -24.210   28.408   46.394
| 50> C  -23.836   28.741   44.944
| 51> C  -24.053   27.378   44.244
| 52> C  -25.268   26.784   45.000
| 53> O  -25.376   27.528   46.273
| 54> H  -24.518   29.269   46.989
| 55> H  -24.522   29.495   44.543
| 56> O  -22.383   29.270   44.795
| 57> H  -24.237   27.477   43.170
| 58> H  -23.168   26.742   44.375
| 59> H  -25.147   25.717   45.216
| 60> H  -26.208   26.931   44.460
| 61> H  -21.679   28.530   45.191
| 62> *
| 63>
| 64>                          ****END OF INPUT****
 Total Charge           Charge          ....    0
 Multiplicity           Mult            ....    1
 Number of Electrons    NEL             ....  102
FINAL SINGLE POINT ENERGY      -652.730185804412
FINAL SINGLE POINT ENERGY      -652.817928996400
FINAL SINGLE POINT ENERGY      -652.840039939474
FINAL SINGLE POINT ENERGY      -652.846692468079
FINAL SINGLE POINT ENERGY      -652.847706093161
FINAL SINGLE POINT ENERGY      -652.848060710414
FINAL SINGLE POINT ENERGY      -652.848166104734
FINAL SINGLE POINT ENERGY      -652.848236659974
FINAL SINGLE POINT ENERGY      -652.848284441717
FINAL SINGLE POINT ENERGY      -652.848376973169
FINAL SINGLE POINT ENERGY      -652.851556234779
FINAL SINGLE POINT ENERGY      -652.847357972993
FINAL SINGLE POINT ENERGY      -652.852236156103
FINAL SINGLE POINT ENERGY      -652.852751848235
FINAL SINGLE POINT ENERGY      -652.852997967851
FINAL SINGLE POINT ENERGY      -652.853184243132
FINAL SINGLE POINT ENERGY      -652.853259837707
FINAL SINGLE POINT ENERGY      -652.853258040480
FINAL SINGLE POINT ENERGY      -652.853264615979
                    ***********************HURRAY********************

CARTESIAN COORDINATES (ANGSTROEM)
---------------------------------
  C    -21.187672   26.271964   46.551869
  C    -20.251955   27.377809   46.038583
  C    -19.909809   28.150478   47.349096
  C    -19.866424   27.012729   48.402393
  O    -20.582620   25.863701   47.803075
  H    -21.163173   25.380730   45.921779
  H    -19.355179   26.903468   45.627149
  H    -20.721096   28.011723   45.285243
  H    -18.947608   28.669216   47.280563
  H    -20.667303   28.902358   47.577690
  H    -20.348401   27.280800   49.347836
  H    -18.844826   26.679241   48.607904
  C    -23.220184   27.685149   47.237660
  H    -23.664684   27.369135   48.187815
  H    -22.494695   28.477563   47.428863
  O    -22.608825   26.510272   46.626890
  C    -24.336856   28.265573   46.367997
  C    -23.959183   28.747333   44.958611
  C    -24.035269   27.427525   44.137343
  C    -25.208633   26.679319   44.810105
  O    -25.407209   27.308581   46.135062
  H    -24.781538   29.083064   46.950100
  H    -24.724516   29.455468   44.612353
  O    -22.660732   29.396923   44.981601
  H    -24.213275   27.605138   43.070639
  H    -23.099684   26.883348   44.267662
  H    -24.993363   25.617479   44.955193
  H    -26.148886   26.788419   44.259181
  H    -22.469400   29.801494   44.112743

 Multiplicity           Mult            ....    1
 Number of Electrons    NEL             ....  102
 Basis Dimension        Dim             ....  149

ORBITAL ENERGIES
----------------

  NO   OCC          E(Eh)            E(eV)
   0   2.0000     -19.156815      -521.2834
   1   2.0000     -19.134584      -520.6785
   2   2.0000     -19.131327      -520.5899
   3   2.0000     -19.130076      -520.5558
   4   2.0000     -10.270607      -279.4774
   5   2.0000     -10.245696      -278.7996
   6   2.0000     -10.230933      -278.3978
   7   2.0000     -10.220674      -278.1187
   8   2.0000     -10.220532      -278.1148
   9   2.0000     -10.219902      -278.0977
  10   2.0000     -10.183816      -277.1157
  11   2.0000     -10.180426      -277.0235
  12   2.0000     -10.177891      -276.9545
  13   2.0000      -1.042055       -28.3558
  14   2.0000      -1.034091       -28.1391
  15   2.0000      -1.013706       -27.5844
  16   2.0000      -0.985122       -26.8065
  17   2.0000      -0.778401       -21.1814
  18   2.0000      -0.776150       -21.1201
  19   2.0000      -0.765428       -20.8284
  20   2.0000      -0.726647       -19.7731
  21   2.0000      -0.675404       -18.3787
  22   2.0000      -0.602123       -16.3846
  23   2.0000      -0.594763       -16.1843
  24   2.0000      -0.593650       -16.1540
  25   2.0000      -0.552157       -15.0250
  26   2.0000      -0.530173       -14.4267
  27   2.0000      -0.508242       -13.8300
  28   2.0000      -0.498747       -13.5716
  29   2.0000      -0.487214       -13.2578
  30   2.0000      -0.457832       -12.4583
  31   2.0000      -0.450692       -12.2640
  32   2.0000      -0.439435       -11.9576
  33   2.0000      -0.430301       -11.7091
  34   2.0000      -0.422969       -11.5096
  35   2.0000      -0.411635       -11.2012
  36   2.0000      -0.401884       -10.9358
  37   2.0000      -0.394667       -10.7394
  38   2.0000      -0.372532       -10.1371
  39   2.0000      -0.365639        -9.9496
  40   2.0000      -0.356942        -9.7129
  41   2.0000      -0.351739        -9.5713
  42   2.0000      -0.340059        -9.2535
  43   2.0000      -0.334387        -9.0991
  44   2.0000      -0.306045        -8.3279
  45   2.0000      -0.299979        -8.1628
  46   2.0000      -0.291023        -7.9191
  47   2.0000      -0.275743        -7.5033
  48   2.0000      -0.256598        -6.9824
  49   2.0000      -0.248110        -6.7514
  50   2.0000      -0.232223        -6.3191
  51   0.0000       0.047043         1.2801
  52   0.0000       0.078685         2.1411
  53   0.0000       0.093672         2.5489
  54   0.0000       0.105807         2.8792
  55   0.0000       0.113875         3.0987

MULLIKEN ATOMIC CHARGES
-----------------------
   0 C :    0.308919
   1 C :   -0.286774
   2 C :   -0.316958
   3 C :   -0.007497
   4 O :   -0.507043
   5 H :    0.156155
   6 H :    0.144299
   7 H :    0.169051
   8 H :    0.137923
   9 H :    0.159364
  10 H :    0.140789
  11 H :    0.142796
  12 C :    0.011739
  13 H :    0.157077
  14 H :    0.140302
  15 O :   -0.532321
  16 C :    0.089120
  17 C :    0.080473
  18 C :   -0.309788
  19 C :   -0.004022
  20 O :   -0.517466
  21 H :    0.145067
  22 H :    0.138607
  23 O :   -0.607856
  24 H :    0.127966
  25 H :    0.178770
  26 H :    0.160765
  27 H :    0.135679
  28 H :    0.364865
Sum of atomic charges:    0.0000000

LOEWDIN ATOMIC CHARGES
----------------------
   0 C :    0.176796
   1 C :   -0.236151
   2 C :   -0.222335
   3 C :   -0.034189
   4 O :   -0.323311
   5 H :    0.107706
   6 H :    0.116600
   7 H :    0.126848
   8 H :    0.112128
   9 H :    0.111427
  10 H :    0.100877
  11 H :    0.102312
  12 C :   -0.036378
  13 H :    0.113414
  14 H :    0.106241
  15 O :   -0.321522
  16 C :    0.031001
  17 C :    0.033960
  18 C :   -0.245777
  19 C :   -0.023562
  20 O :   -0.319186
  21 H :    0.111386
  22 H :    0.097404
  23 O :   -0.415922
  24 H :    0.105685
  25 H :    0.128047
  26 H :    0.112246
  27 H :    0.097687
  28 H :    0.286564

  Mayer bond orders larger than 0.100000
B(  0-C ,  1-C ) :   0.9211 B(  0-C ,  4-O ) :   0.8999 B(  0-C ,  5-H ) :   0.9386
B(  0-C , 15-O ) :   0.8930 B(  1-C ,  2-C ) :   0.9573 B(  1-C ,  6-H ) :   0.9343
B(  1-C ,  7-H ) :   0.9118 B(  2-C ,  3-C ) :   0.9464 B(  2-C ,  8-H ) :   0.9457
B(  2-C ,  9-H ) :   0.9344 B(  3-C ,  4-O ) :   0.8500 B(  3-C , 10-H ) :   0.9350
B(  3-C , 11-H ) :   0.9392 B( 12-C , 13-H ) :   0.9260 B( 12-C , 14-H ) :   0.8912
B( 12-C , 15-O ) :   0.8382 B( 12-C , 16-C ) :   0.9203 B( 16-C , 17-C ) :   0.9218
B( 16-C , 20-O ) :   0.8833 B( 16-C , 21-H ) :   0.9262 B( 17-C , 18-C ) :   0.9271
B( 17-C , 22-H ) :   0.9248 B( 17-C , 23-O ) :   0.8692 B( 18-C , 19-C ) :   0.9474
B( 18-C , 24-H ) :   0.9412 B( 18-C , 25-H ) :   0.9250 B( 19-C , 20-O ) :   0.8416
B( 19-C , 26-H ) :   0.9299 B( 19-C , 27-H ) :   0.9366 B( 23-O , 28-H ) :   0.8006

FINAL SINGLE POINT ENERGY      -652.853263215418

DIPOLE MOMENT
-------------
                                X             Y             Z
Electronic contribution:     -3.35962      -2.15227       1.23892
Nuclear contribution   :      3.97380       3.54625      -2.46090
                        -----------------------------------------
Total Dipole Moment    :      0.61418       1.39398      -1.22198
                        -----------------------------------------
Magnitude (a.u.)       :      1.95285
Magnitude (Debye)      :      4.96376

Rotational constants in cm-1:     0.049965     0.016899     0.015357
Rotational constants in MHz :  1497.917461   506.633485   460.377875

                             ****ORCA TERMINATED NORMALLY****
TOTAL RUN TIME: 0 days 3 hours 6 minutes 52 seconds 192 msec
