                         Program Version 4.2.0 -  RELEASE  -
|  1> # Test redundant internal optimization
|  2> #
|  3> ! RKS B3LYP  Opt TightSCF SmallPrint
|  4>
|  5> %basis
|  6>         Basis "6-31G"
|  7> end
|  8>
|  9> %geom
| 10> Constraints
| 11> { D 4  0  15  12  105.0   C } # D for Dihedral angle
| 12> { D 0  15  12  16  120.0   C } # D for Dihedral angle
| 13> { D 0  4  3  2   C } # D for Dihedral angle
| 14> { D 4  3  2  1   C } # D for Dihedral angle
| 15> { D 3  2  1  0   C } # D for Dihedral angle
| 16> { D 2  1  0  4   C } # D for Dihedral angle
| 17> { D 1  0  4  3   C } # D for Dihedral angle
| 18> { D 16  20  19  18   C } # D for Dihedral angle
| 19> { D 20  19  18  17   C } # D for Dihedral angle
| 20> { D 19  18  17  16   C } # D for Dihedral angle
| 21> { D 18  17  16  20   C } # D for Dihedral angle
| 22> { D 17  16  20  19   C } # D for Dihedral angle
| 23> { D 15  12  16  20   C } # D for Dihedral angle
| 24> end
| 25> end
| 26>
| 27>
| 28> #%pal
| 29> #nprocs 8
| 30> #end
| 31>
| 32> * xyz 0 1
| 33> C  -21.048   26.222   46.251
| 34> C  -20.361   27.558   45.944
| 35> C  -20.329   28.222   47.341
| 36> C  -20.110   27.022   48.296
| 37> O  -20.473   25.807   47.535
| 38> H  -20.833   25.428   45.533
| 39> H  -19.344   27.382   45.576
| 40> H  -20.898   28.157   45.201
| 41> H  -19.543   28.978   47.434
| 42> H  -21.289   28.710   47.548
| 43> H  -20.733   27.082   49.195
| 44> H  -19.064   26.913   48.597
| 45> C  -23.085   27.864   46.420
| 46> H  -23.610   28.039   47.367
| 47> H  -22.237   28.559   46.365
| 48> O  -22.586   26.394   46.375
| 49> C  -24.053   28.206   45.254
| 50> C  -24.432   29.691   45.263
| 51> C  -23.183   30.338   44.620
| 52> C  -22.738   29.284   43.576
| 53> O  -23.387   28.012   43.962
| 54> H  -24.903   27.522   45.283
| 55> H  -25.318   29.858   44.640
| 56> O  -24.727   30.237   46.687
| 57> H  -23.395   31.312   44.165
| 58> H  -22.403   30.485   45.377
| 59> H  -21.652   29.141   43.560
| 60> H  -23.079   29.526   42.566
| 61> H  -23.854   30.082   47.330
| 62> *
| 63>
| 64>                          ****END OF INPUT****
 Total Charge           Charge          ....    0
 Multiplicity           Mult            ....    1
 Number of Electrons    NEL             ....  102
FINAL SINGLE POINT ENERGY      -652.803346475549
FINAL SINGLE POINT ENERGY      -652.831292394975
FINAL SINGLE POINT ENERGY      -652.845110977288
FINAL SINGLE POINT ENERGY      -652.847320154014
FINAL SINGLE POINT ENERGY      -652.847728263813
FINAL SINGLE POINT ENERGY      -652.847819172099
FINAL SINGLE POINT ENERGY      -652.847829028357
FINAL SINGLE POINT ENERGY      -652.847829267324
                    ***********************HURRAY********************

CARTESIAN COORDINATES (ANGSTROEM)
---------------------------------
  C    -21.150574   26.317045   46.350998
  C    -20.149492   27.430106   46.012903
  C    -19.891534   28.072339   47.407580
  C    -19.961778   26.845835   48.354094
  O    -20.657929   25.781775   47.600592
  H    -21.123354   25.479297   45.653399
  H    -19.234579   26.964421   45.633849
  H    -20.518734   28.126879   45.256655
  H    -18.919455   28.572988   47.459555
  H    -20.657406   28.811584   47.660562
  H    -20.510320   27.049703   49.278730
  H    -18.969535   26.460984   48.607543
  C    -23.093301   27.992618   46.488083
  H    -23.703784   28.056730   47.396489
  H    -22.303802   28.750151   46.541831
  O    -22.551915   26.651137   46.401913
  C    -23.973478   28.226009   45.258946
  C    -24.615401   29.621285   45.163853
  C    -23.464014   30.459710   44.533554
  C    -22.788773   29.452687   43.577900
  O    -23.219646   28.096827   44.012099
  H    -24.720747   27.428183   45.231862
  H    -25.471618   29.579316   44.487473
  O    -25.154434   30.148238   46.399875
  H    -23.833557   31.351963   44.021200
  H    -22.777003   30.787473   45.325379
  H    -21.695041   29.508351   43.601554
  H    -23.122641   29.576377   42.543719
  H    -24.433155   30.430991   46.998810

 Multiplicity           Mult            ....    1
 Number of Electrons    NEL             ....  102
 Basis Dimension        Dim             ....  149

ORBITAL ENERGIES
----------------

  NO   OCC          E(Eh)            E(eV)
   0   2.0000     -19.153406      -521.1907
   1   2.0000     -19.143130      -520.9110
   2   2.0000     -19.136777      -520.7382
   3   2.0000     -19.135143      -520.6937
   4   2.0000     -10.275832      -279.6196
   5   2.0000     -10.249004      -278.8896
   6   2.0000     -10.236586      -278.5517
   7   2.0000     -10.234592      -278.4974
   8   2.0000     -10.231073      -278.4017
   9   2.0000     -10.226823      -278.2860
  10   2.0000     -10.200958      -277.5822
  11   2.0000     -10.195647      -277.4377
  12   2.0000     -10.192383      -277.3488
  13   2.0000      -1.047905       -28.5149
  14   2.0000      -1.036570       -28.2065
  15   2.0000      -1.019460       -27.7409
  16   2.0000      -0.991706       -26.9857
  17   2.0000      -0.789057       -21.4713
  18   2.0000      -0.787495       -21.4288
  19   2.0000      -0.773902       -21.0590
  20   2.0000      -0.733070       -19.9479
  21   2.0000      -0.687997       -18.7214
  22   2.0000      -0.616270       -16.7696
  23   2.0000      -0.605031       -16.4637
  24   2.0000      -0.598967       -16.2987
  25   2.0000      -0.572086       -15.5672
  26   2.0000      -0.530927       -14.4473
  27   2.0000      -0.511670       -13.9233
  28   2.0000      -0.507154       -13.8004
  29   2.0000      -0.493090       -13.4176
  30   2.0000      -0.471352       -12.8261
  31   2.0000      -0.462128       -12.5751
  32   2.0000      -0.449722       -12.2376
  33   2.0000      -0.438083       -11.9208
  34   2.0000      -0.429085       -11.6760
  35   2.0000      -0.422320       -11.4919
  36   2.0000      -0.411194       -11.1892
  37   2.0000      -0.402880       -10.9629
  38   2.0000      -0.383624       -10.4390
  39   2.0000      -0.381957       -10.3936
  40   2.0000      -0.361858        -9.8467
  41   2.0000      -0.359621        -9.7858
  42   2.0000      -0.350913        -9.5488
  43   2.0000      -0.335348        -9.1253
  44   2.0000      -0.319141        -8.6843
  45   2.0000      -0.312468        -8.5027
  46   2.0000      -0.289580        -7.8799
  47   2.0000      -0.274332        -7.4650
  48   2.0000      -0.266417        -7.2496
  49   2.0000      -0.255254        -6.9458
  50   2.0000      -0.238735        -6.4963
  51   0.0000       0.041756         1.1362
  52   0.0000       0.058590         1.5943
  53   0.0000       0.082396         2.2421
  54   0.0000       0.090083         2.4513
  55   0.0000       0.101037         2.7493

MULLIKEN ATOMIC CHARGES
-----------------------
   0 C :    0.320393
   1 C :   -0.306492
   2 C :   -0.313799
   3 C :   -0.003553
   4 O :   -0.497076
   5 H :    0.169110
   6 H :    0.158590
   7 H :    0.158741
   8 H :    0.144513
   9 H :    0.141752
  10 H :    0.144572
  11 H :    0.145343
  12 C :   -0.014357
  13 H :    0.149562
  14 H :    0.111470
  15 O :   -0.519273
  16 C :    0.091595
  17 C :    0.079532
  18 C :   -0.317911
  19 C :   -0.019943
  20 O :   -0.507653
  21 H :    0.173406
  22 H :    0.172548
  23 O :   -0.596870
  24 H :    0.158267
  25 H :    0.128133
  26 H :    0.140665
  27 H :    0.154453
  28 H :    0.354281
Sum of atomic charges:   -0.0000000

LOEWDIN ATOMIC CHARGES
----------------------
   0 C :    0.183467
   1 C :   -0.232568
   2 C :   -0.224649
   3 C :   -0.031545
   4 O :   -0.317948
   5 H :    0.113907
   6 H :    0.125062
   7 H :    0.118960
   8 H :    0.115006
   9 H :    0.103534
  10 H :    0.102969
  11 H :    0.103598
  12 C :   -0.048021
  13 H :    0.109858
  14 H :    0.087809
  15 O :   -0.313592
  16 C :    0.014715
  17 C :    0.033903
  18 C :   -0.241077
  19 C :   -0.033893
  20 O :   -0.317360
  21 H :    0.123629
  22 H :    0.121721
  23 O :   -0.405549
  24 H :    0.123461
  25 H :    0.101346
  26 H :    0.098070
  27 H :    0.108225
  28 H :    0.276960

  Mayer bond orders larger than 0.100000
B(  0-C ,  1-C ) :   0.9283 B(  0-C ,  4-O ) :   0.9021 B(  0-C ,  5-H ) :   0.9330
B(  0-C , 15-O ) :   0.8869 B(  1-C ,  2-C ) :   0.9506 B(  1-C ,  6-H ) :   0.9349
B(  1-C ,  7-H ) :   0.9239 B(  2-C ,  3-C ) :   0.9461 B(  2-C ,  8-H ) :   0.9458
B(  2-C ,  9-H ) :   0.9389 B(  3-C ,  4-O ) :   0.8532 B(  3-C , 10-H ) :   0.9343
B(  3-C , 11-H ) :   0.9390 B( 12-C , 13-H ) :   0.9166 B( 12-C , 14-H ) :   0.9061
B( 12-C , 15-O ) :   0.8540 B( 12-C , 16-C ) :   0.8967 B( 16-C , 17-C ) :   0.8698
B( 16-C , 20-O ) :   0.8655 B( 16-C , 21-H ) :   0.9275 B( 17-C , 18-C ) :   0.9223
B( 17-C , 22-H ) :   0.9313 B( 17-C , 23-O ) :   0.8982 B( 18-C , 19-C ) :   0.9390
B( 18-C , 24-H ) :   0.9415 B( 18-C , 25-H ) :   0.9414 B( 19-C , 20-O ) :   0.8533
B( 19-C , 26-H ) :   0.9261 B( 19-C , 27-H ) :   0.9371 B( 23-O , 28-H ) :   0.7993

FINAL SINGLE POINT ENERGY      -652.847817336593

DIPOLE MOMENT
-------------
                                X             Y             Z
Electronic contribution:     -4.49158      -5.16470      -0.14120
Nuclear contribution   :      5.58896       7.01081       0.03618
                        -----------------------------------------
Total Dipole Moment    :      1.09738       1.84611      -0.10502
                        -----------------------------------------
Magnitude (a.u.)       :      2.15020
Magnitude (Debye)      :      5.46538

Rotational constants in cm-1:     0.049173     0.014440     0.013839
Rotational constants in MHz :  1474.155416   432.906314   414.874295

                             ****ORCA TERMINATED NORMALLY****
TOTAL RUN TIME: 0 days 2 hours 24 minutes 26 seconds 976 msec
