                         Program Version 4.2.0 -  RELEASE  -
|  1> # Test redundant internal optimization
|  2> #
|  3> ! RKS B3LYP  Opt TightSCF SmallPrint
|  4>
|  5> %basis
|  6>         Basis "6-31G"
|  7> end
|  8>
|  9> %geom
| 10> Constraints
| 11> { D 4  0  15  12  90.0   C } # D for Dihedral angle
| 12> { D 0  15  12  16  195.0   C } # D for Dihedral angle
| 13> { D 0  4  3  2   C } # D for Dihedral angle
| 14> { D 4  3  2  1   C } # D for Dihedral angle
| 15> { D 3  2  1  0   C } # D for Dihedral angle
| 16> { D 2  1  0  4   C } # D for Dihedral angle
| 17> { D 1  0  4  3   C } # D for Dihedral angle
| 18> { D 16  20  19  18   C } # D for Dihedral angle
| 19> { D 20  19  18  17   C } # D for Dihedral angle
| 20> { D 19  18  17  16   C } # D for Dihedral angle
| 21> { D 18  17  16  20   C } # D for Dihedral angle
| 22> { D 17  16  20  19   C } # D for Dihedral angle
| 23> { D 15  12  16  20   C } # D for Dihedral angle
| 24> end
| 25> end
| 26>
| 27>
| 28> #%pal
| 29> #nprocs 8
| 30> #end
| 31>
| 32> * xyz 0 1
| 33> C  -21.048   26.222   46.251
| 34> C  -20.361   27.558   45.944
| 35> C  -20.329   28.222   47.341
| 36> C  -20.110   27.022   48.296
| 37> O  -20.473   25.807   47.535
| 38> H  -20.833   25.428   45.533
| 39> H  -19.344   27.382   45.576
| 40> H  -20.898   28.157   45.201
| 41> H  -19.543   28.978   47.434
| 42> H  -21.289   28.710   47.548
| 43> H  -20.733   27.082   49.195
| 44> H  -19.064   26.913   48.597
| 45> C  -23.061   27.816   46.783
| 46> H  -22.434   28.185   47.604
| 47> H  -22.964   28.510   45.939
| 48> O  -22.586   26.394   46.375
| 49> C  -24.543   27.843   47.250
| 50> C  -25.011   29.274   47.534
| 51> C  -25.289   29.802   46.106
| 52> C  -25.832   28.552   45.369
| 53> O  -25.427   27.380   46.175
| 54> H  -24.667   27.152   48.087
| 55> O  -26.316   29.252   48.375
| 56> H  -24.265   29.872   48.069
| 57> H  -25.999   30.635   46.092
| 58> H  -24.357   30.148   45.644
| 59> H  -25.422   28.450   44.358
| 60> H  -26.924   28.542   45.312
| 61> H  -27.078   28.658   47.857
| 62> *
| 63>
| 64>                          ****END OF INPUT****
 Total Charge           Charge          ....    0
 Multiplicity           Mult            ....    1
 Number of Electrons    NEL             ....  102
FINAL SINGLE POINT ENERGY      -652.798965875809
FINAL SINGLE POINT ENERGY      -652.831133571252
FINAL SINGLE POINT ENERGY      -652.848659280800
FINAL SINGLE POINT ENERGY      -652.851760675830
FINAL SINGLE POINT ENERGY      -652.852258044253
FINAL SINGLE POINT ENERGY      -652.852326300969
FINAL SINGLE POINT ENERGY      -652.852335426197
FINAL SINGLE POINT ENERGY      -652.852335814037
                    ***********************HURRAY********************

CARTESIAN COORDINATES (ANGSTROEM)
---------------------------------
  C    -21.226779   26.375310   46.407260
  C    -20.219175   27.447497   45.966424
  C    -19.877691   28.147863   47.314576
  C    -19.926089   26.971339   48.323548
  O    -20.684061   25.886358   47.656821
  H    -21.240508   25.505496   45.748881
  H    -19.336208   26.944976   45.559499
  H    -20.612595   28.128219   45.205936
  H    -18.891761   28.623061   47.293820
  H    -20.608920   28.922427   47.556870
  H    -20.422381   27.230437   49.263858
  H    -18.930842   26.575293   48.545126
  C    -23.094106   28.043420   46.819958
  H    -22.591955   28.427279   47.718230
  H    -22.917441   28.744199   45.992271
  O    -22.624832   26.717211   46.467956
  C    -24.582143   27.917509   47.142807
  C    -25.257044   29.248542   47.502793
  C    -25.571888   29.833509   46.099341
  C    -25.912517   28.572901   45.266446
  O    -25.363497   27.414279   46.011788
  H    -24.692923   27.180529   47.943591
  O    -26.468364   29.020165   48.272546
  H    -24.643346   29.909078   48.117738
  H    -26.398618   30.546238   46.157548
  H    -24.694679   30.353479   45.697668
  H    -25.471784   28.593248   44.265422
  H    -26.990951   28.412996   45.169257
  H    -26.946902   28.253144   47.892021

 Multiplicity           Mult            ....    1
 Number of Electrons    NEL             ....  102
 Basis Dimension        Dim             ....  149

ORBITAL ENERGIES
----------------

  NO   OCC          E(Eh)            E(eV)
   0   2.0000     -19.142586      -520.8962
   1   2.0000     -19.140618      -520.8427
   2   2.0000     -19.139920      -520.8237
   3   2.0000     -19.138771      -520.7924
   4   2.0000     -10.277425      -279.6629
   5   2.0000     -10.245121      -278.7839
   6   2.0000     -10.237451      -278.5752
   7   2.0000     -10.235106      -278.5114
   8   2.0000     -10.230529      -278.3868
   9   2.0000     -10.229063      -278.3470
  10   2.0000     -10.195827      -277.4426
  11   2.0000     -10.194881      -277.4168
  12   2.0000     -10.191691      -277.3300
  13   2.0000      -1.051214       -28.6050
  14   2.0000      -1.036717       -28.2105
  15   2.0000      -1.007357       -27.4116
  16   2.0000      -0.995149       -27.0794
  17   2.0000      -0.790935       -21.5224
  18   2.0000      -0.787649       -21.4330
  19   2.0000      -0.772327       -21.0161
  20   2.0000      -0.733607       -19.9625
  21   2.0000      -0.680974       -18.5302
  22   2.0000      -0.607986       -16.5441
  23   2.0000      -0.605020       -16.4634
  24   2.0000      -0.599109       -16.3026
  25   2.0000      -0.577944       -15.7267
  26   2.0000      -0.525719       -14.3055
  27   2.0000      -0.512383       -13.9427
  28   2.0000      -0.501798       -13.6546
  29   2.0000      -0.491150       -13.3649
  30   2.0000      -0.480300       -13.0696
  31   2.0000      -0.462695       -12.5906
  32   2.0000      -0.450799       -12.2669
  33   2.0000      -0.438618       -11.9354
  34   2.0000      -0.430945       -11.7266
  35   2.0000      -0.417109       -11.3501
  36   2.0000      -0.405980       -11.0473
  37   2.0000      -0.394661       -10.7393
  38   2.0000      -0.384954       -10.4751
  39   2.0000      -0.373902       -10.1744
  40   2.0000      -0.365041        -9.9333
  41   2.0000      -0.360779        -9.8173
  42   2.0000      -0.351386        -9.5617
  43   2.0000      -0.331837        -9.0297
  44   2.0000      -0.314629        -8.5615
  45   2.0000      -0.308960        -8.4072
  46   2.0000      -0.294966        -8.0264
  47   2.0000      -0.272945        -7.4272
  48   2.0000      -0.268693        -7.3115
  49   2.0000      -0.252046        -6.8585
  50   2.0000      -0.244516        -6.6536
  51   0.0000       0.060312         1.6412
  52   0.0000       0.073567         2.0019
  53   0.0000       0.079440         2.1617
  54   0.0000       0.095609         2.6017
  55   0.0000       0.102143         2.7795

MULLIKEN ATOMIC CHARGES
-----------------------
   0 C :    0.302946
   1 C :   -0.290555
   2 C :   -0.311561
   3 C :   -0.007857
   4 O :   -0.498370
   5 H :    0.168942
   6 H :    0.159357
   7 H :    0.146773
   8 H :    0.145486
   9 H :    0.143189
  10 H :    0.144191
  11 H :    0.147179
  12 C :    0.001540
  13 H :    0.127066
  14 H :    0.126432
  15 O :   -0.506260
  16 C :    0.068215
  17 C :    0.073488
  18 C :   -0.294381
  19 C :   -0.031644
  20 O :   -0.505661
  21 H :    0.176520
  22 O :   -0.601365
  23 H :    0.148155
  24 H :    0.165510
  25 H :    0.138082
  26 H :    0.148676
  27 H :    0.148129
  28 H :    0.367778
Sum of atomic charges:   -0.0000000

LOEWDIN ATOMIC CHARGES
----------------------
   0 C :    0.174231
   1 C :   -0.230406
   2 C :   -0.223540
   3 C :   -0.033344
   4 O :   -0.319762
   5 H :    0.113935
   6 H :    0.124312
   7 H :    0.116287
   8 H :    0.115718
   9 H :    0.106204
  10 H :    0.102543
  11 H :    0.104687
  12 C :   -0.042119
  13 H :    0.094649
  14 H :    0.091934
  15 O :   -0.306441
  16 C :    0.018609
  17 C :    0.034646
  18 C :   -0.242008
  19 C :   -0.038751
  20 O :   -0.317194
  21 H :    0.124979
  22 O :   -0.413614
  23 H :    0.113244
  24 H :    0.127550
  25 H :    0.109869
  26 H :    0.105428
  27 H :    0.103298
  28 H :    0.285058

  Mayer bond orders larger than 0.100000
B(  0-C ,  1-C ) :   0.9213 B(  0-C ,  4-O ) :   0.9001 B(  0-C ,  5-H ) :   0.9349
B(  0-C , 15-O ) :   0.9064 B(  1-C ,  2-C ) :   0.9525 B(  1-C ,  6-H ) :   0.9356
B(  1-C ,  7-H ) :   0.9355 B(  2-C ,  3-C ) :   0.9469 B(  2-C ,  8-H ) :   0.9453
B(  2-C ,  9-H ) :   0.9408 B(  3-C ,  4-O ) :   0.8510 B(  3-C , 10-H ) :   0.9341
B(  3-C , 11-H ) :   0.9386 B( 12-C , 13-H ) :   0.9001 B( 12-C , 14-H ) :   0.9164
B( 12-C , 15-O ) :   0.8451 B( 12-C , 16-C ) :   0.8974 B( 16-C , 17-C ) :   0.9000
B( 16-C , 20-O ) :   0.8685 B( 16-C , 21-H ) :   0.9217 B( 17-C , 18-C ) :   0.9097
B( 17-C , 22-O ) :   0.8969 B( 17-C , 23-H ) :   0.9330 B( 18-C , 19-C ) :   0.9400
B( 18-C , 24-H ) :   0.9367 B( 18-C , 25-H ) :   0.9348 B( 19-C , 20-O ) :   0.8529
B( 19-C , 26-H ) :   0.9341 B( 19-C , 27-H ) :   0.9374 B( 22-O , 28-H ) :   0.7922

FINAL SINGLE POINT ENERGY      -652.852334140050

DIPOLE MOMENT
-------------
                                X             Y             Z
Electronic contribution:     -4.04653      -5.45463       1.16444
Nuclear contribution   :      4.93168       6.94395      -1.76421
                        -----------------------------------------
Total Dipole Moment    :      0.88515       1.48932      -0.59977
                        -----------------------------------------
Magnitude (a.u.)       :      1.83338
Magnitude (Debye)      :      4.66008

Rotational constants in cm-1:     0.057133     0.012223     0.011816
Rotational constants in MHz :  1712.814915   366.436539   354.234598

                             ****ORCA TERMINATED NORMALLY****
TOTAL RUN TIME: 0 days 0 hours 22 minutes 27 seconds 329 msec
