                         Program Version 4.2.0 -  RELEASE  -
|  1> # Test redundant internal optimization
|  2> #
|  3> ! RKS B3LYP  Opt TightSCF SmallPrint
|  4>
|  5> %basis
|  6>         Basis "6-31G"
|  7> end
|  8>
|  9> %geom
| 10> Constraints
| 11> { D 4  0  15  12  0.0   C } # D for Dihedral angle
| 12> { D 0  15  12  16  285.0   C } # D for Dihedral angle
| 13> { D 0  4  3  2   C } # D for Dihedral angle
| 14> { D 4  3  2  1   C } # D for Dihedral angle
| 15> { D 3  2  1  0   C } # D for Dihedral angle
| 16> { D 2  1  0  4   C } # D for Dihedral angle
| 17> { D 1  0  4  3   C } # D for Dihedral angle
| 18> { D 16  20  19  18   C } # D for Dihedral angle
| 19> { D 20  19  18  17   C } # D for Dihedral angle
| 20> { D 19  18  17  16   C } # D for Dihedral angle
| 21> { D 18  17  16  20   C } # D for Dihedral angle
| 22> { D 17  16  20  19   C } # D for Dihedral angle
| 23> { D 15  12  16  20   C } # D for Dihedral angle
| 24> end
| 25> end
| 26>
| 27>
| 28> #%pal
| 29> #nprocs 8
| 30> #end
| 31>
| 32> * xyz 0 1
| 33> C  -21.048   26.222   46.251
| 34> C  -20.361   27.558   45.944
| 35> C  -20.329   28.222   47.341
| 36> C  -20.110   27.022   48.296
| 37> O  -20.473   25.807   47.535
| 38> H  -20.833   25.428   45.533
| 39> H  -19.344   27.382   45.576
| 40> H  -20.898   28.157   45.201
| 41> H  -19.543   28.978   47.434
| 42> H  -21.289   28.710   47.548
| 43> H  -20.733   27.082   49.195
| 44> H  -19.064   26.913   48.597
| 45> C  -23.172   26.101   47.783
| 46> H  -22.548   26.588   48.543
| 47> H  -24.190   26.502   47.867
| 48> O  -22.586   26.394   46.375
| 49> C  -23.235   24.581   48.103
| 50> C  -24.019   23.818   47.029
| 51> C  -22.966   23.694   45.902
| 52> C  -21.637   23.523   46.679
| 53> O  -21.893   23.992   48.059
| 54> H  -23.611   24.445   49.119
| 55> O  -24.421   22.415   47.559
| 56> H  -24.927   24.339   46.706
| 57> H  -23.164   22.856   45.225
| 58> H  -22.947   24.612   45.301
| 59> H  -20.819   24.109   46.247
| 60> H  -21.324   22.477   46.748
| 61> H  -23.527   21.875   47.888
| 62> *
| 63>
| 64>                          ****END OF INPUT****
 Total Charge           Charge          ....    0
 Multiplicity           Mult            ....    1
 Number of Electrons    NEL             ....  102
FINAL SINGLE POINT ENERGY      -652.797620180147
FINAL SINGLE POINT ENERGY      -652.834720685728
FINAL SINGLE POINT ENERGY      -652.850833898569
FINAL SINGLE POINT ENERGY      -652.853697209364
FINAL SINGLE POINT ENERGY      -652.854132666768
FINAL SINGLE POINT ENERGY      -652.854187665333
FINAL SINGLE POINT ENERGY      -652.854195481657
FINAL SINGLE POINT ENERGY      -652.854195305600
                    ***********************HURRAY********************

CARTESIAN COORDINATES (ANGSTROEM)
---------------------------------
  C    -20.995340   26.444394   46.240429
  C    -20.490432   27.870384   46.022360
  C    -20.298498   28.367804   47.475828
  C    -19.825330   27.097472   48.217272
  O    -20.206294   25.956868   47.338105
  H    -20.820678   25.763369   45.404928
  H    -19.532741   27.837316   45.489444
  H    -21.197465   28.472907   45.448551
  H    -19.574890   29.185131   47.549343
  H    -21.253347   28.723138   47.876662
  H    -20.295497   26.956031   49.193822
  H    -18.738344   27.050920   48.331660
  C    -23.111240   26.054162   47.671596
  H    -22.627866   26.527038   48.537345
  H    -24.117438   26.474336   47.573429
  O    -22.440397   26.475860   46.449960
  C    -23.245108   24.549178   47.977510
  C    -24.042306   23.757018   46.932344
  C    -22.939477   23.380012   45.906239
  C    -21.697913   23.153832   46.806975
  O    -21.995557   23.812720   48.099078
  H    -23.744320   24.486527   48.952544
  O    -24.655022   22.578650   47.532037
  H    -24.868747   24.315661   46.492263
  H    -23.223829   22.492490   45.334965
  H    -22.784495   24.217648   45.220647
  H    -20.780473   23.587472   46.404264
  H    -21.522587   22.094336   47.022246
  H    -23.985366   22.119326   48.082154

 Multiplicity           Mult            ....    1
 Number of Electrons    NEL             ....  102
 Basis Dimension        Dim             ....  149

ORBITAL ENERGIES
----------------

  NO   OCC          E(Eh)            E(eV)
   0   2.0000     -19.148007      -521.0438
   1   2.0000     -19.140341      -520.8352
   2   2.0000     -19.132983      -520.6349
   3   2.0000     -19.130331      -520.5628
   4   2.0000     -10.281720      -279.7798
   5   2.0000     -10.233699      -278.4731
   6   2.0000     -10.231621      -278.4166
   7   2.0000     -10.231202      -278.4051
   8   2.0000     -10.228784      -278.3394
   9   2.0000     -10.218688      -278.0646
  10   2.0000     -10.191356      -277.3209
  11   2.0000     -10.186201      -277.1806
  12   2.0000     -10.176705      -276.9222
  13   2.0000      -1.054001       -28.6808
  14   2.0000      -1.028615       -27.9900
  15   2.0000      -0.998378       -27.1672
  16   2.0000      -0.991943       -26.9921
  17   2.0000      -0.791057       -21.5257
  18   2.0000      -0.774775       -21.0827
  19   2.0000      -0.763286       -20.7701
  20   2.0000      -0.733895       -19.9703
  21   2.0000      -0.672996       -18.3132
  22   2.0000      -0.605533       -16.4774
  23   2.0000      -0.602304       -16.3895
  24   2.0000      -0.594123       -16.1669
  25   2.0000      -0.562511       -15.3067
  26   2.0000      -0.524181       -14.2637
  27   2.0000      -0.507180       -13.8011
  28   2.0000      -0.495215       -13.4755
  29   2.0000      -0.480359       -13.0712
  30   2.0000      -0.472806       -12.8657
  31   2.0000      -0.460751       -12.5377
  32   2.0000      -0.445798       -12.1308
  33   2.0000      -0.432078       -11.7575
  34   2.0000      -0.417319       -11.3558
  35   2.0000      -0.415138       -11.2965
  36   2.0000      -0.395531       -10.7629
  37   2.0000      -0.384948       -10.4750
  38   2.0000      -0.376374       -10.2417
  39   2.0000      -0.367831       -10.0092
  40   2.0000      -0.360105        -9.7989
  41   2.0000      -0.358416        -9.7530
  42   2.0000      -0.347498        -9.4559
  43   2.0000      -0.331125        -9.0104
  44   2.0000      -0.321457        -8.7473
  45   2.0000      -0.306625        -8.3437
  46   2.0000      -0.293109        -7.9759
  47   2.0000      -0.268043        -7.2938
  48   2.0000      -0.260699        -7.0940
  49   2.0000      -0.256210        -6.9718
  50   2.0000      -0.228545        -6.2190
  51   0.0000       0.066685         1.8146
  52   0.0000       0.079023         2.1503
  53   0.0000       0.093118         2.5339
  54   0.0000       0.102711         2.7949
  55   0.0000       0.107040         2.9127

MULLIKEN ATOMIC CHARGES
-----------------------
   0 C :    0.311404
   1 C :   -0.256595
   2 C :   -0.309419
   3 C :   -0.016816
   4 O :   -0.499448
   5 H :    0.146718
   6 H :    0.143932
   7 H :    0.158401
   8 H :    0.147550
   9 H :    0.153447
  10 H :    0.152775
  11 H :    0.151367
  12 C :   -0.002534
  13 H :    0.133961
  14 H :    0.150268
  15 O :   -0.549986
  16 C :    0.076930
  17 C :    0.079859
  18 C :   -0.297080
  19 C :   -0.026476
  20 O :   -0.512291
  21 H :    0.149047
  22 O :   -0.606747
  23 H :    0.150287
  24 H :    0.152309
  25 H :    0.163128
  26 H :    0.158038
  27 H :    0.136818
  28 H :    0.361152
Sum of atomic charges:   -0.0000000

LOEWDIN ATOMIC CHARGES
----------------------
   0 C :    0.181156
   1 C :   -0.219187
   2 C :   -0.219702
   3 C :   -0.031321
   4 O :   -0.305690
   5 H :    0.098793
   6 H :    0.112983
   7 H :    0.124502
   8 H :    0.117352
   9 H :    0.113756
  10 H :    0.105931
  11 H :    0.107129
  12 C :   -0.033775
  13 H :    0.097089
  14 H :    0.115953
  15 O :   -0.348861
  16 C :    0.003835
  17 C :    0.036650
  18 C :   -0.242649
  19 C :   -0.036425
  20 O :   -0.318107
  21 H :    0.114209
  22 O :   -0.419318
  23 H :    0.114639
  24 H :    0.121008
  25 H :    0.122618
  26 H :    0.109444
  27 H :    0.097367
  28 H :    0.280618

  Mayer bond orders larger than 0.100000
B(  0-C ,  1-C ) :   0.9340 B(  0-C ,  4-O ) :   0.9209 B(  0-C ,  5-H ) :   0.9252
B(  0-C , 15-O ) :   0.8271 B(  1-C ,  2-C ) :   0.9546 B(  1-C ,  6-H ) :   0.9357
B(  1-C ,  7-H ) :   0.9364 B(  2-C ,  3-C ) :   0.9521 B(  2-C ,  8-H ) :   0.9445
B(  2-C ,  9-H ) :   0.9452 B(  3-C ,  4-O ) :   0.8294 B(  3-C , 10-H ) :   0.9305
B(  3-C , 11-H ) :   0.9394 B( 12-C , 13-H ) :   0.9219 B( 12-C , 14-H ) :   0.9294
B( 12-C , 15-O ) :   0.8596 B( 12-C , 16-C ) :   0.8751 B( 16-C , 17-C ) :   0.9086
B( 16-C , 20-O ) :   0.8827 B( 16-C , 21-H ) :   0.9155 B( 17-C , 18-C ) :   0.9222
B( 17-C , 22-O ) :   0.8869 B( 17-C , 23-H ) :   0.9354 B( 18-C , 19-C ) :   0.9433
B( 18-C , 24-H ) :   0.9370 B( 18-C , 25-H ) :   0.9235 B( 19-C , 20-O ) :   0.8392
B( 19-C , 26-H ) :   0.9233 B( 19-C , 27-H ) :   0.9387 B( 22-O , 28-H ) :   0.7966

FINAL SINGLE POINT ENERGY      -652.854193861984

DIPOLE MOMENT
-------------
                                X             Y             Z
Electronic contribution:     -2.17523      -3.88165       1.14359
Nuclear contribution   :      2.85417       4.86729      -1.25390
                        -----------------------------------------
Total Dipole Moment    :      0.67893       0.98564      -0.11031
                        -----------------------------------------
Magnitude (a.u.)       :      1.20192
Magnitude (Debye)      :      3.05503

Rotational constants in cm-1:     0.060794     0.015626     0.015232
Rotational constants in MHz :  1822.556610   468.467448   456.650806

                             ****ORCA TERMINATED NORMALLY****
TOTAL RUN TIME: 0 days 0 hours 56 minutes 50 seconds 735 msec
