                         Program Version 4.2.1 -  RELEASE  -
|  1> # Test redundant internal optimization
|  2> #
|  3> ! RKS B3LYP  Opt TightSCF SmallPrint
|  4>
|  5> %basis
|  6>         Basis "6-31G"
|  7> end
|  8>
|  9> %geom
| 10> Constraints
| 11> { D 4  0  19  14  345.0   C } # D for Dihedral angle
| 12> { D 0  19  14  12  165.0   C } # D for Dihedral angle
| 13> { D 0  4  3  2   C } # D for Dihedral angle
| 14> { D 4  3  2  1   C } # D for Dihedral angle
| 15> { D 3  2  1  0   C } # D for Dihedral angle
| 16> { D 2  1  0  4   C } # D for Dihedral angle
| 17> { D 1  0  4  3   C } # D for Dihedral angle
| 18> { D 14  15  16  17   C } # D for Dihedral angle
| 19> { D 15  16  17  12   C } # D for Dihedral angle
| 20> { D 16  17  12  14   C } # D for Dihedral angle
| 21> { D 17  12  14  15   C } # D for Dihedral angle
| 22> { D 12  14  15  16   C } # D for Dihedral angle
| 23> end
| 24> end
| 25>
| 26>
| 27> #%pal
| 28> #nprocs 8
| 29> #end
| 30>
| 31> * xyz 0 1
| 32> C  -21.048   26.222   46.251
| 33> C  -20.361   27.558   45.944
| 34> C  -20.329   28.222   47.341
| 35> C  -20.110   27.022   48.296
| 36> O  -20.473   25.807   47.535
| 37> H  -20.833   25.428   45.533
| 38> H  -19.344   27.382   45.576
| 39> H  -20.898   28.157   45.201
| 40> H  -19.543   28.978   47.434
| 41> H  -21.289   28.710   47.548
| 42> H  -20.733   27.082   49.195
| 43> H  -19.064   26.913   48.597
| 44> C  -24.461   26.324   47.768
| 45> H  -24.808   26.126   48.794
| 46> C  -23.040   25.792   47.547
| 47> C  -23.299   24.282   47.334
| 48> C  -24.653   24.260   46.580
| 49> O  -25.278   25.583   46.800
| 50> H  -24.587   27.384   47.545
| 51> O  -22.472   26.381   46.366
| 52> H  -22.370   25.993   48.390
| 53> H  -22.500   23.789   46.772
| 54> H  -23.389   23.775   48.303
| 55> H  -25.327   23.479   46.949
| 56> H  -24.527   24.138   45.500
| 57> *
| 58>
| 59>                          ****END OF INPUT****
 Total Charge           Charge          ....    0
 Multiplicity           Mult            ....    1
 Number of Electrons    NEL             ....   86
FINAL SINGLE POINT ENERGY      -538.427461144939
FINAL SINGLE POINT ENERGY      -538.431847295795
FINAL SINGLE POINT ENERGY      -538.432696917380
FINAL SINGLE POINT ENERGY      -538.432868830536
FINAL SINGLE POINT ENERGY      -538.432881827167
FINAL SINGLE POINT ENERGY      -538.432887463127
                    ***********************HURRAY********************

CARTESIAN COORDINATES (ANGSTROEM)
---------------------------------
  C    -21.003151   26.224943   46.289401
  C    -20.425587   27.602144   45.961454
  C    -20.313438   28.238928   47.365281
  C    -19.945220   27.042342   48.269575
  O    -20.309124   25.822463   47.492958
  H    -20.792411   25.447862   45.549373
  H    -19.438535   27.479721   45.501004
  H    -21.071098   28.164170   45.283518
  H    -19.564013   29.035182   47.407982
  H    -21.279408   28.663443   47.656040
  H    -20.489430   27.032196   49.218330
  H    -18.872458   26.972061   48.470292
  C    -24.495458   26.327111   47.690599
  H    -24.920449   26.168042   48.693542
  C    -23.086687   25.740033   47.607293
  C    -23.384674   24.242164   47.404455
  C    -24.664706   24.246936   46.536509
  O    -25.253480   25.597780   46.673838
  H    -24.530557   27.386539   47.432715
  O    -22.446783   26.336199   46.439078
  H    -22.487155   25.921901   48.502785
  H    -22.546832   23.719368   46.936146
  H    -23.568788   23.775392   48.379657
  H    -25.397639   23.500201   46.862433
  H    -24.448919   24.099880   45.474744

 Multiplicity           Mult            ....    1
 Number of Electrons    NEL             ....   86
 Basis Dimension        Dim             ....  127

ORBITAL ENERGIES
----------------

  NO   OCC          E(Eh)            E(eV)
   0   2.0000     -19.151490      -521.1385
   1   2.0000     -19.137173      -520.7490
   2   2.0000     -19.122129      -520.3396
   3   2.0000     -10.279853      -279.7290
   4   2.0000     -10.235061      -278.5102
   5   2.0000     -10.234067      -278.4831
   6   2.0000     -10.217621      -278.0356
   7   2.0000     -10.214993      -277.9641
   8   2.0000     -10.191444      -277.3233
   9   2.0000     -10.186707      -277.1944
  10   2.0000     -10.179054      -276.9861
  11   2.0000      -1.056190       -28.7404
  12   2.0000      -1.010742       -27.5037
  13   2.0000      -0.986844       -26.8534
  14   2.0000      -0.794242       -21.6124
  15   2.0000      -0.775795       -21.1105
  16   2.0000      -0.740717       -20.1559
  17   2.0000      -0.719854       -19.5882
  18   2.0000      -0.613615       -16.6973
  19   2.0000      -0.602604       -16.3977
  20   2.0000      -0.592746       -16.1294
  21   2.0000      -0.562719       -15.3124
  22   2.0000      -0.526420       -14.3246
  23   2.0000      -0.499060       -13.5801
  24   2.0000      -0.488575       -13.2948
  25   2.0000      -0.479696       -13.0532
  26   2.0000      -0.453138       -12.3305
  27   2.0000      -0.438529       -11.9330
  28   2.0000      -0.423808       -11.5324
  29   2.0000      -0.412980       -11.2378
  30   2.0000      -0.409638       -11.1468
  31   2.0000      -0.383243       -10.4286
  32   2.0000      -0.370644       -10.0857
  33   2.0000      -0.362254        -9.8574
  34   2.0000      -0.361493        -9.8367
  35   2.0000      -0.357075        -9.7165
  36   2.0000      -0.345072        -9.3899
  37   2.0000      -0.332559        -9.0494
  38   2.0000      -0.306410        -8.3378
  39   2.0000      -0.291656        -7.9364
  40   2.0000      -0.265765        -7.2318
  41   2.0000      -0.253100        -6.8872
  42   2.0000      -0.227385        -6.1875
  43   0.0000       0.071108         1.9349
  44   0.0000       0.096749         2.6327
  45   0.0000       0.102496         2.7891
  46   0.0000       0.104133         2.8336
  47   0.0000       0.114967         3.1284

MULLIKEN ATOMIC CHARGES
-----------------------
   0 C :    0.300560
   1 C :   -0.257793
   2 C :   -0.302802
   3 C :   -0.018329
   4 O :   -0.515144
   5 H :    0.151362
   6 H :    0.144008
   7 H :    0.164886
   8 H :    0.147083
   9 H :    0.155989
  10 H :    0.143338
  11 H :    0.151351
  12 C :    0.003580
  13 H :    0.120733
  14 C :    0.074442
  15 C :   -0.293910
  16 C :    0.000284
  17 O :   -0.520204
  18 H :    0.160910
  19 O :   -0.531953
  20 H :    0.140647
  21 H :    0.158727
  22 H :    0.138391
  23 H :    0.133460
  24 H :    0.150384
Sum of atomic charges:   -0.0000000

LOEWDIN ATOMIC CHARGES
----------------------
   0 C :    0.180617
   1 C :   -0.216768
   2 C :   -0.218237
   3 C :   -0.032629
   4 O :   -0.323868
   5 H :    0.099799
   6 H :    0.113524
   7 H :    0.128116
   8 H :    0.117149
   9 H :    0.115526
  10 H :    0.100894
  11 H :    0.107188
  12 C :   -0.035382
  13 H :    0.089371
  14 C :    0.039677
  15 C :   -0.233743
  16 C :   -0.030128
  17 O :   -0.330307
  18 H :    0.119294
  19 O :   -0.332982
  20 H :    0.103335
  21 H :    0.123833
  22 H :    0.111934
  23 H :    0.097381
  24 H :    0.106411

  Mayer bond orders larger than 0.100000
B(  0-C ,  1-C ) :   0.9394 B(  0-C ,  4-O ) :   0.9005 B(  0-C ,  5-H ) :   0.9257
B(  0-C , 19-O ) :   0.8461 B(  1-C ,  2-C ) :   0.9533 B(  1-C ,  6-H ) :   0.9362
B(  1-C ,  7-H ) :   0.9350 B(  2-C ,  3-C ) :   0.9535 B(  2-C ,  8-H ) :   0.9446
B(  2-C ,  9-H ) :   0.9452 B(  3-C ,  4-O ) :   0.8313 B(  3-C , 10-H ) :   0.9319
B(  3-C , 11-H ) :   0.9404 B( 12-C , 13-H ) :   0.9162 B( 12-C , 14-C ) :   0.9341
B( 12-C , 17-O ) :   0.8702 B( 12-C , 18-H ) :   0.9309 B( 14-C , 15-C ) :   0.9319
B( 14-C , 19-O ) :   0.8254 B( 14-C , 20-H ) :   0.9151 B( 15-C , 16-C ) :   0.9460
B( 15-C , 21-H ) :   0.9400 B( 15-C , 22-H ) :   0.9377 B( 16-C , 17-O ) :   0.8575
B( 16-C , 23-H ) :   0.9332 B( 16-C , 24-H ) :   0.9366

FINAL SINGLE POINT ENERGY      -538.432887565412

DIPOLE MOMENT
-------------
                                X             Y             Z
Electronic contribution:     -1.74856      -1.23427      -1.62989
Nuclear contribution   :      2.76568       1.53064       2.27167
                        -----------------------------------------
Total Dipole Moment    :      1.01712       0.29637       0.64178
                        -----------------------------------------
Magnitude (a.u.)       :      1.23865
Magnitude (Debye)      :      3.14839

Rotational constants in cm-1:     0.083268     0.021209     0.020460
Rotational constants in MHz :  2496.310388   635.840726   613.364806

                             ****ORCA TERMINATED NORMALLY****
TOTAL RUN TIME: 0 days 0 hours 8 minutes 20 seconds 68 msec
