                         Program Version 4.2.0 -  RELEASE  -
|  1> # Test redundant internal optimization
|  2> #
|  3> ! RKS B3LYP  Opt TightSCF SmallPrint
|  4>
|  5> %basis
|  6>         Basis "6-31G"
|  7> end
|  8>
|  9> %geom
| 10> Constraints
| 11> { D 4  0  15  12  180.0   C } # D for Dihedral angle
| 12> { D 0  15  12  16  150.0   C } # D for Dihedral angle
| 13> { D 0  4  3  2   C } # D for Dihedral angle
| 14> { D 4  3  2  1   C } # D for Dihedral angle
| 15> { D 3  2  1  0   C } # D for Dihedral angle
| 16> { D 2  1  0  4   C } # D for Dihedral angle
| 17> { D 1  0  4  3   C } # D for Dihedral angle
| 18> { D 16  20  19  18   C } # D for Dihedral angle
| 19> { D 20  19  18  17   C } # D for Dihedral angle
| 20> { D 19  18  17  16   C } # D for Dihedral angle
| 21> { D 18  17  16  20   C } # D for Dihedral angle
| 22> { D 17  16  20  19   C } # D for Dihedral angle
| 23> { D 15  12  16  20   C } # D for Dihedral angle
| 24> end
| 25> end
| 26>
| 27>
| 28> #%pal
| 29> #nprocs 8
| 30> #end
| 31>
| 32> * xyz 0 1
| 33> C  -21.048   26.222   46.251
| 34> C  -20.361   27.558   45.944
| 35> C  -20.329   28.222   47.341
| 36> C  -20.110   27.022   48.296
| 37> O  -20.473   25.807   47.535
| 38> H  -20.833   25.428   45.533
| 39> H  -19.344   27.382   45.576
| 40> H  -20.898   28.157   45.201
| 41> H  -19.543   28.978   47.434
| 42> H  -21.289   28.710   47.548
| 43> H  -20.733   27.082   49.195
| 44> H  -19.064   26.913   48.597
| 45> C  -23.309   26.834   45.072
| 46> H  -23.337   27.929   45.026
| 47> H  -22.767   26.467   44.190
| 48> O  -22.586   26.394   46.375
| 49> C  -24.767   26.303   44.986
| 50> C  -24.814   24.778   45.134
| 51> C  -24.680   24.608   46.667
| 52> C  -25.449   25.832   47.225
| 53> O  -25.561   26.801   46.113
| 54> H  -25.232   26.683   44.074
| 55> O  -26.184   24.237   44.642
| 56> H  -24.020   24.266   44.580
| 57> H  -25.089   23.659   47.026
| 58> H  -23.624   24.650   46.959
| 59> H  -24.930   26.306   48.065
| 60> H  -26.467   25.579   47.535
| 61> H  -26.994   24.736   45.184
| 62> *
| 63>
| 64>                          ****END OF INPUT****
 Total Charge           Charge          ....    0
 Multiplicity           Mult            ....    1
 Number of Electrons    NEL             ....  102
FINAL SINGLE POINT ENERGY      -652.833933594042
FINAL SINGLE POINT ENERGY      -652.856548425388
FINAL SINGLE POINT ENERGY      -652.860483451531
FINAL SINGLE POINT ENERGY      -652.861665008290
FINAL SINGLE POINT ENERGY      -652.861789936849
FINAL SINGLE POINT ENERGY      -652.861807297783
                    ***********************HURRAY********************

CARTESIAN COORDINATES (ANGSTROEM)
---------------------------------
  C    -21.081757   26.247351   46.187699
  C    -20.354855   27.559452   45.901384
  C    -20.381456   28.251191   47.286681
  C    -20.238985   27.066422   48.263434
  O    -20.595002   25.854760   47.475770
  H    -20.874536   25.432419   45.485422
  H    -19.326166   27.337384   45.594126
  H    -20.822718   28.158479   45.115448
  H    -19.579850   28.986762   47.402117
  H    -21.340201   28.758084   47.430908
  H    -20.910362   27.130490   49.122727
  H    -19.212668   26.919612   48.611481
  C    -23.225751   26.834130   45.101935
  H    -23.257866   27.929090   45.044163
  H    -22.707577   26.453041   44.207008
  O    -22.524717   26.429251   46.312370
  C    -24.656875   26.300387   45.105186
  C    -24.825958   24.775437   45.176566
  C    -24.724917   24.516796   46.704777
  C    -25.402605   25.768770   47.314704
  O    -25.422193   26.799063   46.247050
  H    -25.150104   26.687211   44.204738
  O    -26.115224   24.380420   44.627904
  H    -24.088407   24.222256   44.594145
  H    -25.231107   23.585140   46.973214
  H    -23.677355   24.468304   47.002948
  H    -24.847284   26.163557   48.168604
  H    -26.442562   25.593669   47.608940
  H    -26.815943   24.934071   45.032552

 Multiplicity           Mult            ....    1
 Number of Electrons    NEL             ....  102
 Basis Dimension        Dim             ....  149

ORBITAL ENERGIES
----------------

  NO   OCC          E(Eh)            E(eV)
   0   2.0000     -19.147025      -521.0170
   1   2.0000     -19.146652      -521.0069
   2   2.0000     -19.135109      -520.6928
   3   2.0000     -19.132504      -520.6219
   4   2.0000     -10.286313      -279.9048
   5   2.0000     -10.236288      -278.5436
   6   2.0000     -10.233941      -278.4797
   7   2.0000     -10.232630      -278.4440
   8   2.0000     -10.229691      -278.3641
   9   2.0000     -10.218027      -278.0467
  10   2.0000     -10.192732      -277.3583
  11   2.0000     -10.191126      -277.3146
  12   2.0000     -10.170706      -276.7590
  13   2.0000      -1.060040       -28.8451
  14   2.0000      -1.030081       -28.0299
  15   2.0000      -1.003362       -27.3029
  16   2.0000      -0.994873       -27.0719
  17   2.0000      -0.791719       -21.5438
  18   2.0000      -0.775915       -21.1137
  19   2.0000      -0.760959       -20.7068
  20   2.0000      -0.735159       -20.0047
  21   2.0000      -0.675702       -18.3868
  22   2.0000      -0.606382       -16.5005
  23   2.0000      -0.598679       -16.2909
  24   2.0000      -0.593002       -16.1364
  25   2.0000      -0.573342       -15.6014
  26   2.0000      -0.527874       -14.3642
  27   2.0000      -0.504489       -13.7278
  28   2.0000      -0.503067       -13.6891
  29   2.0000      -0.486868       -13.2484
  30   2.0000      -0.475085       -12.9277
  31   2.0000      -0.457156       -12.4398
  32   2.0000      -0.449489       -12.2312
  33   2.0000      -0.437056       -11.8929
  34   2.0000      -0.424940       -11.5632
  35   2.0000      -0.409987       -11.1563
  36   2.0000      -0.404870       -11.0171
  37   2.0000      -0.383306       -10.4303
  38   2.0000      -0.381333       -10.3766
  39   2.0000      -0.364489        -9.9183
  40   2.0000      -0.361565        -9.8387
  41   2.0000      -0.356070        -9.6892
  42   2.0000      -0.354493        -9.6463
  43   2.0000      -0.327756        -8.9187
  44   2.0000      -0.316456        -8.6112
  45   2.0000      -0.309016        -8.4087
  46   2.0000      -0.300248        -8.1702
  47   2.0000      -0.265890        -7.2352
  48   2.0000      -0.263189        -7.1617
  49   2.0000      -0.260285        -7.0827
  50   2.0000      -0.238230        -6.4826
  51   0.0000       0.069102         1.8804
  52   0.0000       0.077949         2.1211
  53   0.0000       0.092308         2.5118
  54   0.0000       0.102219         2.7815
  55   0.0000       0.112060         3.0493

MULLIKEN ATOMIC CHARGES
-----------------------
   0 C :    0.303349
   1 C :   -0.278783
   2 C :   -0.299045
   3 C :   -0.001800
   4 O :   -0.505436
   5 H :    0.142283
   6 H :    0.149012
   7 H :    0.145589
   8 H :    0.144795
   9 H :    0.164326
  10 H :    0.155728
  11 H :    0.144329
  12 C :   -0.002087
  13 H :    0.149665
  14 H :    0.118538
  15 O :   -0.514935
  16 C :    0.072321
  17 C :    0.074689
  18 C :   -0.282849
  19 C :   -0.019889
  20 O :   -0.529117
  21 H :    0.150025
  22 O :   -0.604017
  23 H :    0.145147
  24 H :    0.142880
  25 H :    0.183116
  26 H :    0.155003
  27 H :    0.134610
  28 H :    0.362556
Sum of atomic charges:   -0.0000000

LOEWDIN ATOMIC CHARGES
----------------------
   0 C :    0.179333
   1 C :   -0.231566
   2 C :   -0.216443
   3 C :   -0.024061
   4 O :   -0.304049
   5 H :    0.096737
   6 H :    0.116546
   7 H :    0.115071
   8 H :    0.115841
   9 H :    0.119901
  10 H :    0.110393
  11 H :    0.103898
  12 C :   -0.041527
  13 H :    0.104695
  14 H :    0.093066
  15 O :   -0.334111
  16 C :    0.014726
  17 C :    0.038673
  18 C :   -0.240536
  19 C :   -0.032346
  20 O :   -0.331668
  21 H :    0.113612
  22 O :   -0.417647
  23 H :    0.113155
  24 H :    0.116180
  25 H :    0.134464
  26 H :    0.110270
  27 H :    0.095508
  28 H :    0.281885

  Mayer bond orders larger than 0.100000
B(  0-C ,  1-C ) :   0.9288 B(  0-C ,  4-O ) :   0.9400 B(  0-C ,  5-H ) :   0.9191
B(  0-C , 15-O ) :   0.8251 B(  1-C ,  2-C ) :   0.9512 B(  1-C ,  6-H ) :   0.9340
B(  1-C ,  7-H ) :   0.9323 B(  2-C ,  3-C ) :   0.9562 B(  2-C ,  8-H ) :   0.9448
B(  2-C ,  9-H ) :   0.9437 B(  3-C ,  4-O ) :   0.8309 B(  3-C , 10-H ) :   0.9346
B(  3-C , 11-H ) :   0.9397 B( 12-C , 13-H ) :   0.9166 B( 12-C , 14-H ) :   0.9084
B( 12-C , 15-O ) :   0.8434 B( 12-C , 16-C ) :   0.9025 B( 16-C , 17-C ) :   0.9087
B( 16-C , 20-O ) :   0.8772 B( 16-C , 21-H ) :   0.9219 B( 17-C , 18-C ) :   0.9235
B( 17-C , 22-O ) :   0.8902 B( 17-C , 23-H ) :   0.9363 B( 18-C , 19-C ) :   0.9468
B( 18-C , 24-H ) :   0.9383 B( 18-C , 25-H ) :   0.9160 B( 19-C , 20-O ) :   0.8349
B( 19-C , 26-H ) :   0.9341 B( 19-C , 27-H ) :   0.9377 B( 22-O , 28-H ) :   0.7958

FINAL SINGLE POINT ENERGY      -652.861807586106

DIPOLE MOMENT
-------------
                                X             Y             Z
Electronic contribution:     -3.56593      -2.44918      -1.10568
Nuclear contribution   :      4.52407       3.28281       1.03530
                        -----------------------------------------
Total Dipole Moment    :      0.95814       0.83362      -0.07038
                        -----------------------------------------
Magnitude (a.u.)       :      1.27197
Magnitude (Debye)      :      3.23310

Rotational constants in cm-1:     0.058565     0.013587     0.013194
Rotational constants in MHz :  1755.743358   407.331658   395.539026

                             ****ORCA TERMINATED NORMALLY****
TOTAL RUN TIME: 0 days 0 hours 21 minutes 33 seconds 793 msec
