                         Program Version 4.2.0 -  RELEASE  -
|  1> # Test redundant internal optimization
|  2> #
|  3> ! RKS B3LYP  Opt TightSCF SmallPrint
|  4>
|  5> %basis
|  6>         Basis "6-31G"
|  7> end
|  8>
|  9> %geom
| 10> Constraints
| 11> { D 4  0  15  12  255.0   C } # D for Dihedral angle
| 12> { D 0  15  12  16  120.0   C } # D for Dihedral angle
| 13> { D 0  4  3  2   C } # D for Dihedral angle
| 14> { D 4  3  2  1   C } # D for Dihedral angle
| 15> { D 3  2  1  0   C } # D for Dihedral angle
| 16> { D 2  1  0  4   C } # D for Dihedral angle
| 17> { D 1  0  4  3   C } # D for Dihedral angle
| 18> { D 16  20  19  18   C } # D for Dihedral angle
| 19> { D 20  19  18  17   C } # D for Dihedral angle
| 20> { D 19  18  17  16   C } # D for Dihedral angle
| 21> { D 18  17  16  20   C } # D for Dihedral angle
| 22> { D 17  16  20  19   C } # D for Dihedral angle
| 23> { D 15  12  16  20   C } # D for Dihedral angle
| 24> end
| 25> end
| 26>
| 27>
| 28> #%pal
| 29> #nprocs 8
| 30> #end
| 31>
| 32> * xyz 0 1
| 33> C  -21.048   26.222   46.251
| 34> C  -20.361   27.558   45.944
| 35> C  -20.329   28.222   47.341
| 36> C  -20.110   27.022   48.296
| 37> O  -20.473   25.807   47.535
| 38> H  -20.833   25.428   45.533
| 39> H  -19.344   27.382   45.576
| 40> H  -20.898   28.157   45.201
| 41> H  -19.543   28.978   47.434
| 42> H  -21.289   28.710   47.548
| 43> H  -20.733   27.082   49.195
| 44> H  -19.064   26.913   48.597
| 45> C  -23.431   25.260   45.734
| 46> H  -24.069   25.683   44.947
| 47> H  -22.778   24.506   45.276
| 48> O  -22.586   26.394   46.375
| 49> C  -24.342   24.534   46.762
| 50> C  -23.527   23.991   47.942
| 51> C  -23.320   25.267   48.793
| 52> C  -24.642   26.047   48.585
| 53> O  -25.278   25.481   47.376
| 54> H  -24.940   23.783   46.244
| 55> O  -24.359   22.939   48.725
| 56> H  -22.583   23.527   47.636
| 57> H  -23.126   25.047   49.848
| 58> H  -22.468   25.842   48.410
| 59> H  -24.478   27.119   48.437
| 60> H  -25.344   25.907   49.413
| 61> H  -25.309   23.382   49.042
| 62> *
| 63>
| 64>                          ****END OF INPUT****
 Total Charge           Charge          ....    0
 Multiplicity           Mult            ....    1
 Number of Electrons    NEL             ....  102
FINAL SINGLE POINT ENERGY      -652.834973535938
FINAL SINGLE POINT ENERGY      -652.857682033636
FINAL SINGLE POINT ENERGY      -652.861820341474
FINAL SINGLE POINT ENERGY      -652.864644618149
FINAL SINGLE POINT ENERGY      -652.864856738003
FINAL SINGLE POINT ENERGY      -652.864891307747
FINAL SINGLE POINT ENERGY      -652.864893179265
                    ***********************HURRAY********************

CARTESIAN COORDINATES (ANGSTROEM)
---------------------------------
  C    -21.023553   26.197300   46.227883
  C    -20.388261   27.541732   45.866155
  C    -20.373651   28.264051   47.235252
  C    -20.107566   27.115156   48.233692
  O    -20.436028   25.859449   47.507201
  H    -20.780813   25.371506   45.551436
  H    -19.368452   27.373781   45.501381
  H    -20.959811   28.072300   45.102411
  H    -19.611678   29.047243   47.292204
  H    -21.351700   28.718558   47.420193
  H    -20.727912   27.173857   49.131804
  H    -19.056318   27.038782   48.525792
  C    -23.302894   25.298458   45.779015
  H    -23.925506   25.759384   45.004652
  H    -22.682633   24.518769   45.311472
  O    -22.455714   26.361104   46.313338
  C    -24.236228   24.652122   46.801944
  C    -23.607388   23.949883   48.013638
  C    -23.395623   25.135475   48.989228
  C    -24.616522   26.044258   48.708418
  O    -25.154634   25.628659   47.390000
  H    -24.857150   23.937533   46.246040
  O    -24.514656   22.940238   48.541970
  H    -22.683770   23.416381   47.787208
  H    -23.355791   24.781668   50.023333
  H    -22.459337   25.631827   48.736163
  H    -24.346860   27.102649   48.655527
  H    -25.422887   25.916528   49.438952
  H    -25.401665   23.341349   48.659697

 Multiplicity           Mult            ....    1
 Number of Electrons    NEL             ....  102
 Basis Dimension        Dim             ....  149

ORBITAL ENERGIES
----------------

  NO   OCC          E(Eh)            E(eV)
   0   2.0000     -19.149882      -521.0948
   1   2.0000     -19.148718      -521.0631
   2   2.0000     -19.134348      -520.6721
   3   2.0000     -19.130425      -520.5653
   4   2.0000     -10.286743      -279.9165
   5   2.0000     -10.235452      -278.5208
   6   2.0000     -10.231425      -278.4112
   7   2.0000     -10.230927      -278.3977
   8   2.0000     -10.229784      -278.3666
   9   2.0000     -10.219061      -278.0748
  10   2.0000     -10.190460      -277.2965
  11   2.0000     -10.189932      -277.2821
  12   2.0000     -10.169284      -276.7203
  13   2.0000      -1.058789       -28.8111
  14   2.0000      -1.028197       -27.9787
  15   2.0000      -1.003028       -27.2938
  16   2.0000      -0.994925       -27.0733
  17   2.0000      -0.792902       -21.5760
  18   2.0000      -0.773301       -21.0426
  19   2.0000      -0.761093       -20.7104
  20   2.0000      -0.735056       -20.0019
  21   2.0000      -0.674298       -18.3486
  22   2.0000      -0.603978       -16.4351
  23   2.0000      -0.600480       -16.3399
  24   2.0000      -0.591617       -16.0987
  25   2.0000      -0.578379       -15.7385
  26   2.0000      -0.525558       -14.3012
  27   2.0000      -0.501843       -13.6558
  28   2.0000      -0.500597       -13.6219
  29   2.0000      -0.489868       -13.3300
  30   2.0000      -0.472768       -12.8647
  31   2.0000      -0.452112       -12.3026
  32   2.0000      -0.444478       -12.0949
  33   2.0000      -0.440538       -11.9876
  34   2.0000      -0.429273       -11.6811
  35   2.0000      -0.409026       -11.1302
  36   2.0000      -0.404006       -10.9936
  37   2.0000      -0.383185       -10.4270
  38   2.0000      -0.370547       -10.0831
  39   2.0000      -0.363356        -9.8874
  40   2.0000      -0.362719        -9.8701
  41   2.0000      -0.354996        -9.6599
  42   2.0000      -0.348764        -9.4903
  43   2.0000      -0.328741        -8.9455
  44   2.0000      -0.322579        -8.7778
  45   2.0000      -0.311350        -8.4723
  46   2.0000      -0.299777        -8.1573
  47   2.0000      -0.275724        -7.5028
  48   2.0000      -0.261720        -7.1218
  49   2.0000      -0.259501        -7.0614
  50   2.0000      -0.234837        -6.3902
  51   0.0000       0.065989         1.7957
  52   0.0000       0.082087         2.2337
  53   0.0000       0.086248         2.3469
  54   0.0000       0.105812         2.8793
  55   0.0000       0.110121         2.9966

MULLIKEN ATOMIC CHARGES
-----------------------
   0 C :    0.282606
   1 C :   -0.253595
   2 C :   -0.299782
   3 C :   -0.007176
   4 O :   -0.506349
   5 H :    0.144237
   6 H :    0.145700
   7 H :    0.156085
   8 H :    0.144529
   9 H :    0.164450
  10 H :    0.143438
  11 H :    0.146950
  12 C :   -0.002906
  13 H :    0.158297
  14 H :    0.123168
  15 O :   -0.520065
  16 C :    0.076757
  17 C :    0.072735
  18 C :   -0.304237
  19 C :   -0.025215
  20 O :   -0.526919
  21 H :    0.150579
  22 O :   -0.604211
  23 H :    0.156497
  24 H :    0.144294
  25 H :    0.193851
  26 H :    0.149975
  27 H :    0.135151
  28 H :    0.361154
Sum of atomic charges:   -0.0000000

LOEWDIN ATOMIC CHARGES
----------------------
   0 C :    0.172798
   1 C :   -0.217206
   2 C :   -0.216125
   3 C :   -0.029231
   4 O :   -0.324959
   5 H :    0.097783
   6 H :    0.114358
   7 H :    0.123656
   8 H :    0.115531
   9 H :    0.120064
  10 H :    0.102772
  11 H :    0.104893
  12 C :   -0.033809
  13 H :    0.114009
  14 H :    0.097242
  15 O :   -0.327416
  16 C :    0.008837
  17 C :    0.038622
  18 C :   -0.245077
  19 C :   -0.035315
  20 O :   -0.332063
  21 H :    0.114480
  22 O :   -0.418272
  23 H :    0.118249
  24 H :    0.117636
  25 H :    0.135542
  26 H :    0.106614
  27 H :    0.095527
  28 H :    0.280861

  Mayer bond orders larger than 0.100000
B(  0-C ,  1-C ) :   0.9441 B(  0-C ,  4-O ) :   0.9050 B(  0-C ,  5-H ) :   0.9173
B(  0-C , 15-O ) :   0.8591 B(  1-C ,  2-C ) :   0.9576 B(  1-C ,  6-H ) :   0.9377
B(  1-C ,  7-H ) :   0.9374 B(  2-C ,  3-C ) :   0.9541 B(  2-C ,  8-H ) :   0.9448
B(  2-C ,  9-H ) :   0.9436 B(  3-C ,  4-O ) :   0.8336 B(  3-C , 10-H ) :   0.9324
B(  3-C , 11-H ) :   0.9408 B( 12-C , 13-H ) :   0.9286 B( 12-C , 14-H ) :   0.9112
B( 12-C , 15-O ) :   0.8514 B( 12-C , 16-C ) :   0.8977 B( 16-C , 17-C ) :   0.9077
B( 16-C , 20-O ) :   0.8735 B( 16-C , 21-H ) :   0.9179 B( 17-C , 18-C ) :   0.9245
B( 17-C , 22-O ) :   0.8881 B( 17-C , 23-H ) :   0.9342 B( 18-C , 19-C ) :   0.9432
B( 18-C , 24-H ) :   0.9394 B( 18-C , 25-H ) :   0.8988 B( 19-C , 20-O ) :   0.8406
B( 19-C , 26-H ) :   0.9341 B( 19-C , 27-H ) :   0.9370 B( 22-O , 28-H ) :   0.7969

FINAL SINGLE POINT ENERGY      -652.864891153347

DIPOLE MOMENT
-------------
                                X             Y             Z
Electronic contribution:     -3.61288      -3.99330      -0.87934
Nuclear contribution   :      4.42894       4.90503       0.51305
                        -----------------------------------------
Total Dipole Moment    :      0.81606       0.91174      -0.36628
                        -----------------------------------------
Magnitude (a.u.)       :      1.27725
Magnitude (Debye)      :      3.24652

Rotational constants in cm-1:     0.049929     0.016008     0.015176
Rotational constants in MHz :  1496.822511   479.892834   454.964464

                             ****ORCA TERMINATED NORMALLY****
TOTAL RUN TIME: 0 days 0 hours 26 minutes 3 seconds 80 msec
