                         Program Version 4.2.0 -  RELEASE  -
|  1> # Test redundant internal optimization
|  2> #
|  3> ! RKS B3LYP  Opt TightSCF SmallPrint
|  4>
|  5> %basis
|  6>         Basis "6-31G"
|  7> end
|  8>
|  9> %geom
| 10> Constraints
| 11> { D 4  0  15  12  75.0   C } # D for Dihedral angle
| 12> { D 0  15  12  16  225.0   C } # D for Dihedral angle
| 13> { D 0  4  3  2   C } # D for Dihedral angle
| 14> { D 4  3  2  1   C } # D for Dihedral angle
| 15> { D 3  2  1  0   C } # D for Dihedral angle
| 16> { D 2  1  0  4   C } # D for Dihedral angle
| 17> { D 1  0  4  3   C } # D for Dihedral angle
| 18> { D 16  20  19  18   C } # D for Dihedral angle
| 19> { D 20  19  18  17   C } # D for Dihedral angle
| 20> { D 19  18  17  16   C } # D for Dihedral angle
| 21> { D 18  17  16  20   C } # D for Dihedral angle
| 22> { D 17  16  20  19   C } # D for Dihedral angle
| 23> { D 15  12  16  20   C } # D for Dihedral angle
| 24> end
| 25> end
| 26>
| 27>
| 28> #%pal
| 29> #nprocs 8
| 30> #end
| 31>
| 32> * xyz 0 1
| 33> C  -21.048   26.222   46.251
| 34> C  -20.361   27.558   45.944
| 35> C  -20.329   28.222   47.341
| 36> C  -20.110   27.022   48.296
| 37> O  -20.473   25.807   47.535
| 38> H  -20.833   25.428   45.533
| 39> H  -19.344   27.382   45.576
| 40> H  -20.898   28.157   45.201
| 41> H  -19.543   28.978   47.434
| 42> H  -21.289   28.710   47.548
| 43> H  -20.733   27.082   49.195
| 44> H  -19.064   26.913   48.597
| 45> C  -23.049   27.675   47.122
| 46> H  -22.197   28.109   47.659
| 47> H  -23.422   28.421   46.409
| 48> O  -22.586   26.394   46.375
| 49> C  -24.181   27.395   48.149
| 50> C  -24.693   28.694   48.781
| 51> C  -25.623   29.238   47.672
| 52> C  -26.234   27.952   47.062
| 53> O  -25.357   26.834   47.475
| 54> H  -23.837   26.647   48.866
| 55> O  -25.502   28.377   50.069
| 56> H  -23.888   29.391   49.041
| 57> H  -26.387   29.922   48.056
| 58> H  -25.036   29.780   46.921
| 59> H  -26.279   27.987   45.968
| 60> H  -27.233   27.739   47.452
| 61> H  -26.313   27.680   49.832
| 62> *
| 63>
| 64>                          ****END OF INPUT****
 Total Charge           Charge          ....    0
 Multiplicity           Mult            ....    1
 Number of Electrons    NEL             ....  102
FINAL SINGLE POINT ENERGY      -652.783756431296
FINAL SINGLE POINT ENERGY      -652.826324674981
FINAL SINGLE POINT ENERGY      -652.846389871420
FINAL SINGLE POINT ENERGY      -652.850451405085
FINAL SINGLE POINT ENERGY      -652.851074311611
FINAL SINGLE POINT ENERGY      -652.851211837993
FINAL SINGLE POINT ENERGY      -652.851238501864
FINAL SINGLE POINT ENERGY      -652.851246233410
FINAL SINGLE POINT ENERGY      -652.851246502965
                    ***********************HURRAY********************

CARTESIAN COORDINATES (ANGSTROEM)
---------------------------------
  C    -21.213176   26.378736   46.442820
  C    -20.235908   27.449147   45.930278
  C    -19.824593   28.173635   47.247864
  C    -19.811935   27.012187   48.276135
  O    -20.599559   25.912544   47.669290
  H    -21.248057   25.503243   45.792468
  H    -19.373398   26.945528   45.482811
  H    -20.682794   28.112900   45.185122
  H    -18.841747   28.649167   47.167251
  H    -20.540851   28.954399   47.514051
  H    -20.255874   27.282582   49.239397
  H    -18.803377   26.625155   48.447638
  C    -23.120579   27.891696   47.193375
  H    -22.367662   28.370633   47.827747
  H    -23.430464   28.603610   46.418177
  O    -22.612404   26.692430   46.546743
  C    -24.295194   27.490061   48.087246
  C    -24.964256   28.673838   48.800817
  C    -25.922151   29.206879   47.702909
  C    -26.370637   27.914428   46.976165
  O    -25.384587   26.866747   47.333350
  H    -23.941358   26.736504   48.796895
  O    -25.692427   28.224936   49.976603
  H    -24.265139   29.428114   49.165718
  H    -26.753153   29.756325   48.152137
  H    -25.387564   29.882976   47.025543
  H    -26.393238   28.025118   45.887598
  H    -27.351142   27.563404   47.311789
  H    -26.158776   27.389079   49.762065

 Multiplicity           Mult            ....    1
 Number of Electrons    NEL             ....  102
 Basis Dimension        Dim             ....  149

ORBITAL ENERGIES
----------------

  NO   OCC          E(Eh)            E(eV)
   0   2.0000     -19.141812      -520.8752
   1   2.0000     -19.140524      -520.8401
   2   2.0000     -19.138990      -520.7984
   3   2.0000     -19.138819      -520.7937
   4   2.0000     -10.277549      -279.6663
   5   2.0000     -10.243530      -278.7406
   6   2.0000     -10.235604      -278.5249
   7   2.0000     -10.232797      -278.4486
   8   2.0000     -10.230394      -278.3832
   9   2.0000     -10.229134      -278.3489
  10   2.0000     -10.196315      -277.4558
  11   2.0000     -10.193354      -277.3753
  12   2.0000     -10.190343      -277.2933
  13   2.0000      -1.050937       -28.5975
  14   2.0000      -1.035307       -28.1721
  15   2.0000      -1.006014       -27.3750
  16   2.0000      -0.994596       -27.0643
  17   2.0000      -0.790528       -21.5114
  18   2.0000      -0.786460       -21.4007
  19   2.0000      -0.771056       -20.9815
  20   2.0000      -0.733664       -19.9640
  21   2.0000      -0.680048       -18.5051
  22   2.0000      -0.607480       -16.5304
  23   2.0000      -0.604863       -16.4592
  24   2.0000      -0.599553       -16.3147
  25   2.0000      -0.575960       -15.6727
  26   2.0000      -0.522707       -14.2236
  27   2.0000      -0.515570       -14.0294
  28   2.0000      -0.502385       -13.6706
  29   2.0000      -0.489937       -13.3319
  30   2.0000      -0.476011       -12.9529
  31   2.0000      -0.462215       -12.5775
  32   2.0000      -0.448706       -12.2099
  33   2.0000      -0.439673       -11.9641
  34   2.0000      -0.428070       -11.6484
  35   2.0000      -0.419472       -11.4144
  36   2.0000      -0.404247       -11.0001
  37   2.0000      -0.393318       -10.7027
  38   2.0000      -0.383978       -10.4486
  39   2.0000      -0.372893       -10.1469
  40   2.0000      -0.364094        -9.9075
  41   2.0000      -0.360765        -9.8169
  42   2.0000      -0.349172        -9.5015
  43   2.0000      -0.331283        -9.0147
  44   2.0000      -0.314760        -8.5651
  45   2.0000      -0.309651        -8.4260
  46   2.0000      -0.296031        -8.0554
  47   2.0000      -0.271247        -7.3810
  48   2.0000      -0.269162        -7.3243
  49   2.0000      -0.254197        -6.9171
  50   2.0000      -0.239635        -6.5208
  51   0.0000       0.061683         1.6785
  52   0.0000       0.074539         2.0283
  53   0.0000       0.082508         2.2452
  54   0.0000       0.096868         2.6359
  55   0.0000       0.100995         2.7482

MULLIKEN ATOMIC CHARGES
-----------------------
   0 C :    0.296742
   1 C :   -0.278980
   2 C :   -0.316588
   3 C :   -0.010396
   4 O :   -0.501956
   5 H :    0.169769
   6 H :    0.158152
   7 H :    0.148079
   8 H :    0.145818
   9 H :    0.145520
  10 H :    0.143628
  11 H :    0.148820
  12 C :   -0.008925
  13 H :    0.126191
  14 H :    0.134187
  15 O :   -0.503820
  16 C :    0.074700
  17 C :    0.075104
  18 C :   -0.297670
  19 C :   -0.028970
  20 O :   -0.506108
  21 H :    0.175218
  22 O :   -0.602495
  23 H :    0.146353
  24 H :    0.164126
  25 H :    0.140357
  26 H :    0.150694
  27 H :    0.144780
  28 H :    0.367671
Sum of atomic charges:    0.0000000

LOEWDIN ATOMIC CHARGES
----------------------
   0 C :    0.173495
   1 C :   -0.229390
   2 C :   -0.224881
   3 C :   -0.034820
   4 O :   -0.321912
   5 H :    0.114869
   6 H :    0.123369
   7 H :    0.118008
   8 H :    0.115805
   9 H :    0.105847
  10 H :    0.101799
  11 H :    0.105569
  12 C :   -0.043421
  13 H :    0.097769
  14 H :    0.099133
  15 O :   -0.305928
  16 C :    0.015907
  17 C :    0.033656
  18 C :   -0.241852
  19 C :   -0.038129
  20 O :   -0.317650
  21 H :    0.124492
  22 O :   -0.414765
  23 H :    0.112106
  24 H :    0.127048
  25 H :    0.110574
  26 H :    0.105919
  27 H :    0.102388
  28 H :    0.284995

  Mayer bond orders larger than 0.100000
B(  0-C ,  1-C ) :   0.9152 B(  0-C ,  4-O ) :   0.8946 B(  0-C ,  5-H ) :   0.9355
B(  0-C , 15-O ) :   0.9170 B(  1-C ,  2-C ) :   0.9542 B(  1-C ,  6-H ) :   0.9354
B(  1-C ,  7-H ) :   0.9378 B(  2-C ,  3-C ) :   0.9447 B(  2-C ,  8-H ) :   0.9448
B(  2-C ,  9-H ) :   0.9395 B(  3-C ,  4-O ) :   0.8507 B(  3-C , 10-H ) :   0.9338
B(  3-C , 11-H ) :   0.9384 B( 12-C , 13-H ) :   0.9010 B( 12-C , 14-H ) :   0.9280
B( 12-C , 15-O ) :   0.8407 B( 12-C , 16-C ) :   0.8930 B( 16-C , 17-C ) :   0.8970
B( 16-C , 20-O ) :   0.8678 B( 16-C , 21-H ) :   0.9224 B( 17-C , 18-C ) :   0.9088
B( 17-C , 22-O ) :   0.8948 B( 17-C , 23-H ) :   0.9336 B( 18-C , 19-C ) :   0.9415
B( 18-C , 24-H ) :   0.9371 B( 18-C , 25-H ) :   0.9350 B( 19-C , 20-O ) :   0.8533
B( 19-C , 26-H ) :   0.9333 B( 19-C , 27-H ) :   0.9381 B( 22-O , 28-H ) :   0.7923

FINAL SINGLE POINT ENERGY      -652.851245298792

DIPOLE MOMENT
-------------
                                X             Y             Z
Electronic contribution:     -2.98428      -5.53826       1.26372
Nuclear contribution   :      3.59533       7.04189      -1.82827
                        -----------------------------------------
Total Dipole Moment    :      0.61105       1.50363      -0.56454
                        -----------------------------------------
Magnitude (a.u.)       :      1.71843
Magnitude (Debye)      :      4.36790

Rotational constants in cm-1:     0.054946     0.012808     0.012109
Rotational constants in MHz :  1647.229920   383.971199   363.017182

                             ****ORCA TERMINATED NORMALLY****
TOTAL RUN TIME: 0 days 0 hours 27 minutes 16 seconds 576 msec
