                         Program Version 4.2.0 -  RELEASE  -
|  1> # Test redundant internal optimization
|  2> #
|  3> ! RKS B3LYP  Opt TightSCF SmallPrint
|  4>
|  5> %basis
|  6>         Basis "6-31G"
|  7> end
|  8>
|  9> %geom
| 10> Constraints
| 11> { D 4  0  15  12  90.0   C } # D for Dihedral angle
| 12> { D 0  15  12  16  195.0   C } # D for Dihedral angle
| 13> { D 0  4  3  2   C } # D for Dihedral angle
| 14> { D 4  3  2  1   C } # D for Dihedral angle
| 15> { D 3  2  1  0   C } # D for Dihedral angle
| 16> { D 2  1  0  4   C } # D for Dihedral angle
| 17> { D 1  0  4  3   C } # D for Dihedral angle
| 18> { D 16  20  19  18   C } # D for Dihedral angle
| 19> { D 20  19  18  17   C } # D for Dihedral angle
| 20> { D 19  18  17  16   C } # D for Dihedral angle
| 21> { D 18  17  16  20   C } # D for Dihedral angle
| 22> { D 17  16  20  19   C } # D for Dihedral angle
| 23> { D 15  12  16  20   C } # D for Dihedral angle
| 24> end
| 25> end
| 26>
| 27>
| 28> #%pal
| 29> #nprocs 8
| 30> #end
| 31>
| 32> * xyz 0 1
| 33> C  -21.048   26.222   46.251
| 34> C  -20.361   27.558   45.944
| 35> C  -20.329   28.222   47.341
| 36> C  -20.110   27.022   48.296
| 37> O  -20.473   25.807   47.535
| 38> H  -20.833   25.428   45.533
| 39> H  -19.344   27.382   45.576
| 40> H  -20.898   28.157   45.201
| 41> H  -19.543   28.978   47.434
| 42> H  -21.289   28.710   47.548
| 43> H  -20.733   27.082   49.195
| 44> H  -19.064   26.913   48.597
| 45> C  -23.061   27.816   46.783
| 46> H  -22.434   28.185   47.604
| 47> H  -22.964   28.510   45.939
| 48> O  -22.586   26.394   46.375
| 49> C  -24.543   27.843   47.250
| 50> C  -25.011   29.274   47.534
| 51> C  -25.289   29.802   46.106
| 52> C  -25.832   28.552   45.369
| 53> O  -25.427   27.380   46.175
| 54> H  -24.667   27.152   48.087
| 55> H  -25.932   29.259   48.127
| 56> O  -23.954   30.123   48.293
| 57> H  -25.999   30.635   46.092
| 58> H  -24.357   30.148   45.644
| 59> H  -25.422   28.450   44.358
| 60> H  -26.924   28.542   45.312
| 61> H  -23.022   30.153   47.717
| 62> *
| 63>
| 64>                          ****END OF INPUT****
 Total Charge           Charge          ....    0
 Multiplicity           Mult            ....    1
 Number of Electrons    NEL             ....  102
FINAL SINGLE POINT ENERGY      -652.793590064828
FINAL SINGLE POINT ENERGY      -652.826112157011
FINAL SINGLE POINT ENERGY      -652.844270997051
FINAL SINGLE POINT ENERGY      -652.847642352578
FINAL SINGLE POINT ENERGY      -652.848212544050
FINAL SINGLE POINT ENERGY      -652.848367730171
FINAL SINGLE POINT ENERGY      -652.848391453330
FINAL SINGLE POINT ENERGY      -652.848396549327
FINAL SINGLE POINT ENERGY      -652.848396328882
                    ***********************HURRAY********************

CARTESIAN COORDINATES (ANGSTROEM)
---------------------------------
  C    -21.185655   26.347586   46.388613
  C    -20.181635   27.423480   45.949266
  C    -19.837912   28.119147   47.299753
  C    -19.881421   26.937841   48.303760
  O    -20.638766   25.854556   47.634553
  H    -21.199559   25.480538   45.726497
  H    -19.298402   26.924932   45.538005
  H    -20.578770   28.106120   45.192378
  H    -18.853314   28.597163   47.278939
  H    -20.571306   28.889549   47.548420
  H    -20.376039   27.192453   49.246023
  H    -18.884563   26.543242   48.520925
  C    -23.050938   28.012602   46.812600
  H    -22.552526   28.392903   47.712935
  H    -22.874286   28.713502   45.983202
  O    -22.583655   26.687505   46.454102
  C    -24.538165   27.886650   47.139525
  C    -25.207392   29.220373   47.509330
  C    -25.541420   29.811300   46.105878
  C    -25.892751   28.551586   45.283699
  O    -25.334503   27.391063   46.022399
  H    -24.637604   27.137438   47.929948
  H    -26.124307   29.021509   48.068458
  O    -24.432501   30.089376   48.373515
  H    -26.357916   30.537609   46.146287
  H    -24.655356   30.318910   45.701124
  H    -25.470846   28.569531   44.274090
  H    -26.973148   28.394086   45.210155
  H    -23.734344   30.546448   47.861624

 Multiplicity           Mult            ....    1
 Number of Electrons    NEL             ....  102
 Basis Dimension        Dim             ....  149

ORBITAL ENERGIES
----------------

  NO   OCC          E(Eh)            E(eV)
   0   2.0000     -19.153385      -521.1901
   1   2.0000     -19.140552      -520.8409
   2   2.0000     -19.137121      -520.7475
   3   2.0000     -19.135833      -520.7125
   4   2.0000     -10.275750      -279.6174
   5   2.0000     -10.246964      -278.8341
   6   2.0000     -10.233509      -278.4679
   7   2.0000     -10.230466      -278.3851
   8   2.0000     -10.230281      -278.3801
   9   2.0000     -10.227467      -278.3035
  10   2.0000     -10.198023      -277.5023
  11   2.0000     -10.195072      -277.4220
  12   2.0000     -10.193980      -277.3923
  13   2.0000      -1.049297       -28.5528
  14   2.0000      -1.035261       -28.1709
  15   2.0000      -1.016173       -27.6515
  16   2.0000      -0.993849       -27.0440
  17   2.0000      -0.789557       -21.4849
  18   2.0000      -0.784717       -21.3532
  19   2.0000      -0.772970       -21.0336
  20   2.0000      -0.732179       -19.9236
  21   2.0000      -0.685338       -18.6490
  22   2.0000      -0.613289       -16.6885
  23   2.0000      -0.605551       -16.4779
  24   2.0000      -0.597068       -16.2470
  25   2.0000      -0.571974       -15.5642
  26   2.0000      -0.526639       -14.3306
  27   2.0000      -0.512230       -13.9385
  28   2.0000      -0.502099       -13.6628
  29   2.0000      -0.495267       -13.4769
  30   2.0000      -0.473106       -12.8739
  31   2.0000      -0.461597       -12.5607
  32   2.0000      -0.441779       -12.0214
  33   2.0000      -0.436058       -11.8657
  34   2.0000      -0.427019       -11.6198
  35   2.0000      -0.420796       -11.4505
  36   2.0000      -0.414363       -11.2754
  37   2.0000      -0.403402       -10.9771
  38   2.0000      -0.383918       -10.4469
  39   2.0000      -0.379150       -10.3172
  40   2.0000      -0.362085        -9.8528
  41   2.0000      -0.355810        -9.6821
  42   2.0000      -0.349680        -9.5153
  43   2.0000      -0.330902        -9.0043
  44   2.0000      -0.317335        -8.6351
  45   2.0000      -0.312982        -8.5167
  46   2.0000      -0.292918        -7.9707
  47   2.0000      -0.273116        -7.4319
  48   2.0000      -0.267276        -7.2729
  49   2.0000      -0.249964        -6.8019
  50   2.0000      -0.240986        -6.5575
  51   0.0000       0.042606         1.1594
  52   0.0000       0.068223         1.8564
  53   0.0000       0.082979         2.2580
  54   0.0000       0.091397         2.4870
  55   0.0000       0.098080         2.6689

MULLIKEN ATOMIC CHARGES
-----------------------
   0 C :    0.303371
   1 C :   -0.290571
   2 C :   -0.309319
   3 C :   -0.007779
   4 O :   -0.498123
   5 H :    0.168390
   6 H :    0.158985
   7 H :    0.144994
   8 H :    0.144600
   9 H :    0.138421
  10 H :    0.147057
  11 H :    0.146304
  12 C :   -0.012954
  13 H :    0.136617
  14 H :    0.114661
  15 O :   -0.506257
  16 C :    0.094785
  17 C :    0.075929
  18 C :   -0.326014
  19 C :   -0.012675
  20 O :   -0.499346
  21 H :    0.173709
  22 H :    0.172268
  23 O :   -0.597528
  24 H :    0.160510
  25 H :    0.129862
  26 H :    0.145539
  27 H :    0.151476
  28 H :    0.353088
Sum of atomic charges:   -0.0000000

LOEWDIN ATOMIC CHARGES
----------------------
   0 C :    0.173988
   1 C :   -0.230679
   2 C :   -0.223119
   3 C :   -0.033195
   4 O :   -0.319417
   5 H :    0.113659
   6 H :    0.124095
   7 H :    0.115322
   8 H :    0.115149
   9 H :    0.104406
  10 H :    0.103999
  11 H :    0.104257
  12 C :   -0.051836
  13 H :    0.098440
  14 H :    0.085259
  15 O :   -0.304162
  16 C :    0.022677
  17 C :    0.033542
  18 C :   -0.242740
  19 C :   -0.030625
  20 O :   -0.309024
  21 H :    0.124972
  22 H :    0.121406
  23 O :   -0.407630
  24 H :    0.123201
  25 H :    0.101856
  26 H :    0.103525
  27 H :    0.106665
  28 H :    0.276009

  Mayer bond orders larger than 0.100000
B(  0-C ,  1-C ) :   0.9211 B(  0-C ,  4-O ) :   0.8999 B(  0-C ,  5-H ) :   0.9350
B(  0-C , 15-O ) :   0.9088 B(  1-C ,  2-C ) :   0.9528 B(  1-C ,  6-H ) :   0.9356
B(  1-C ,  7-H ) :   0.9358 B(  2-C ,  3-C ) :   0.9473 B(  2-C ,  8-H ) :   0.9453
B(  2-C ,  9-H ) :   0.9414 B(  3-C ,  4-O ) :   0.8512 B(  3-C , 10-H ) :   0.9336
B(  3-C , 11-H ) :   0.9386 B( 12-C , 13-H ) :   0.8906 B( 12-C , 14-H ) :   0.9168
B( 12-C , 15-O ) :   0.8480 B( 12-C , 16-C ) :   0.9041 B( 16-C , 17-C ) :   0.8724
B( 16-C , 20-O ) :   0.8748 B( 16-C , 21-H ) :   0.9270 B( 17-C , 18-C ) :   0.9241
B( 17-C , 22-H ) :   0.9325 B( 17-C , 23-O ) :   0.8932 B( 18-C , 19-C ) :   0.9389
B( 18-C , 24-H ) :   0.9411 B( 18-C , 25-H ) :   0.9408 B( 19-C , 20-O ) :   0.8532
B( 19-C , 26-H ) :   0.9311 B( 19-C , 27-H ) :   0.9372 B( 23-O , 28-H ) :   0.8000

FINAL SINGLE POINT ENERGY      -652.848385504756

DIPOLE MOMENT
-------------
                                X             Y             Z
Electronic contribution:     -3.08788      -4.99203       1.28426
Nuclear contribution   :      3.79993       6.80632      -1.97280
                        -----------------------------------------
Total Dipole Moment    :      0.71205       1.81428      -0.68854
                        -----------------------------------------
Magnitude (a.u.)       :      2.06706
Magnitude (Debye)      :      5.25404

Rotational constants in cm-1:     0.050271     0.013724     0.012404
Rotational constants in MHz :  1507.079825   411.447986   371.867888

                             ****ORCA TERMINATED NORMALLY****
TOTAL RUN TIME: 0 days 1 hours 49 minutes 17 seconds 205 msec
