                         Program Version 4.2.0 -  RELEASE  -
|  1> # Test redundant internal optimization
|  2> #
|  3> ! RKS B3LYP  Opt TightSCF SmallPrint
|  4>
|  5> %basis
|  6>         Basis "6-31G"
|  7> end
|  8>
|  9> %geom
| 10> Constraints
| 11> { D 4  0  15  12  150.0   C } # D for Dihedral angle
| 12> { D 0  15  12  16  45.0   C } # D for Dihedral angle
| 13> { D 0  4  3  2   C } # D for Dihedral angle
| 14> { D 4  3  2  1   C } # D for Dihedral angle
| 15> { D 3  2  1  0   C } # D for Dihedral angle
| 16> { D 2  1  0  4   C } # D for Dihedral angle
| 17> { D 1  0  4  3   C } # D for Dihedral angle
| 18> { D 16  20  19  18   C } # D for Dihedral angle
| 19> { D 20  19  18  17   C } # D for Dihedral angle
| 20> { D 19  18  17  16   C } # D for Dihedral angle
| 21> { D 18  17  16  20   C } # D for Dihedral angle
| 22> { D 17  16  20  19   C } # D for Dihedral angle
| 23> { D 15  12  16  20   C } # D for Dihedral angle
| 24> end
| 25> end
| 26>
| 27>
| 28> #%pal
| 29> #nprocs 8
| 30> #end
| 31>
| 32> * xyz 0 1
| 33> C  -21.048   26.222   46.251
| 34> C  -20.361   27.558   45.944
| 35> C  -20.329   28.222   47.341
| 36> C  -20.110   27.022   48.296
| 37> O  -20.473   25.807   47.535
| 38> H  -20.833   25.428   45.533
| 39> H  -19.344   27.382   45.576
| 40> H  -20.898   28.157   45.201
| 41> H  -19.543   28.978   47.434
| 42> H  -21.289   28.710   47.548
| 43> H  -20.733   27.082   49.195
| 44> H  -19.064   26.913   48.597
| 45> C  -23.210   27.459   45.431
| 46> H  -24.298   27.325   45.404
| 47> H  -22.997   28.470   45.801
| 48> O  -22.586   26.394   46.375
| 49> C  -22.669   27.363   43.978
| 50> C  -23.072   26.038   43.321
| 51> C  -24.540   26.319   42.921
| 52> C  -24.518   27.820   42.537
| 53> O  -23.290   28.388   43.132
| 54> H  -21.596   27.559   43.982
| 55> H  -22.456   25.857   42.432
| 56> O  -22.928   24.817   44.271
| 57> H  -24.885   25.683   42.100
| 58> H  -25.202   26.147   43.778
| 59> H  -25.388   28.363   42.922
| 60> H  -24.455   27.973   41.457
| 61> H  -23.536   24.977   45.168
| 62> *
| 63>
| 64>                          ****END OF INPUT****
 Total Charge           Charge          ....    0
 Multiplicity           Mult            ....    1
 Number of Electrons    NEL             ....  102
FINAL SINGLE POINT ENERGY      -652.816998432063
FINAL SINGLE POINT ENERGY      -652.844345982049
FINAL SINGLE POINT ENERGY      -652.852432915018
FINAL SINGLE POINT ENERGY      -652.854138817920
FINAL SINGLE POINT ENERGY      -652.854473729427
FINAL SINGLE POINT ENERGY      -652.854568889586
FINAL SINGLE POINT ENERGY      -652.854577236366
FINAL SINGLE POINT ENERGY      -652.854581067726
                    ***********************HURRAY********************

CARTESIAN COORDINATES (ANGSTROEM)
---------------------------------
  C    -21.037715   26.231571   46.286279
  C    -20.146544   27.442163   46.002404
  C    -20.221167   28.227380   47.343066
  C    -20.298721   27.090018   48.383363
  O    -20.711252   25.881563   47.633555
  H    -20.872989   25.357594   45.656415
  H    -19.126879   27.079280   45.827482
  H    -20.433611   28.051993   45.147382
  H    -19.352520   28.874803   47.493794
  H    -21.122020   28.848879   47.370693
  H    -21.030024   27.276713   49.173691
  H    -19.328470   26.861435   48.833994
  C    -23.142718   27.482852   45.384461
  H    -24.207541   27.265923   45.503387
  H    -22.969239   28.510216   45.730822
  O    -22.486847   26.529332   46.286775
  C    -22.730091   27.406021   43.903468
  C    -23.104121   26.076192   43.224807
  C    -24.622610   26.280046   42.944444
  C    -24.719454   27.784972   42.619537
  O    -23.471299   28.415065   43.149033
  H    -21.676858   27.645728   43.765696
  H    -22.557843   25.972462   42.284233
  O    -22.787489   24.888493   43.986084
  H    -24.972152   25.645265   42.125944
  H    -25.196798   26.015864   43.839731
  H    -25.581852   28.274400   43.081207
  H    -24.734120   27.982625   41.543979
  H    -23.008056   25.034152   44.935272

 Multiplicity           Mult            ....    1
 Number of Electrons    NEL             ....  102
 Basis Dimension        Dim             ....  149

ORBITAL ENERGIES
----------------

  NO   OCC          E(Eh)            E(eV)
   0   2.0000     -19.149305      -521.0791
   1   2.0000     -19.147384      -521.0268
   2   2.0000     -19.143967      -520.9338
   3   2.0000     -19.134997      -520.6897
   4   2.0000     -10.285011      -279.8694
   5   2.0000     -10.241348      -278.6812
   6   2.0000     -10.239292      -278.6253
   7   2.0000     -10.239030      -278.6182
   8   2.0000     -10.233761      -278.4748
   9   2.0000     -10.228803      -278.3399
  10   2.0000     -10.194765      -277.4136
  11   2.0000     -10.193763      -277.3864
  12   2.0000     -10.189736      -277.2768
  13   2.0000      -1.056692       -28.7540
  14   2.0000      -1.032846       -28.1052
  15   2.0000      -1.011268       -27.5180
  16   2.0000      -0.993937       -27.0464
  17   2.0000      -0.791676       -21.5426
  18   2.0000      -0.780687       -21.2436
  19   2.0000      -0.770722       -20.9724
  20   2.0000      -0.740688       -20.1551
  21   2.0000      -0.684623       -18.6295
  22   2.0000      -0.608631       -16.5617
  23   2.0000      -0.608123       -16.5479
  24   2.0000      -0.604349       -16.4452
  25   2.0000      -0.572475       -15.5778
  26   2.0000      -0.537256       -14.6195
  27   2.0000      -0.513754       -13.9799
  28   2.0000      -0.501421       -13.6444
  29   2.0000      -0.491132       -13.3644
  30   2.0000      -0.472671       -12.8620
  31   2.0000      -0.461127       -12.5479
  32   2.0000      -0.447174       -12.1682
  33   2.0000      -0.439673       -11.9641
  34   2.0000      -0.429040       -11.6748
  35   2.0000      -0.418476       -11.3873
  36   2.0000      -0.407378       -11.0853
  37   2.0000      -0.405746       -11.0409
  38   2.0000      -0.385765       -10.4972
  39   2.0000      -0.377795       -10.2803
  40   2.0000      -0.361454        -9.8357
  41   2.0000      -0.361039        -9.8244
  42   2.0000      -0.354219        -9.6388
  43   2.0000      -0.340790        -9.2734
  44   2.0000      -0.319774        -8.7015
  45   2.0000      -0.309129        -8.4118
  46   2.0000      -0.304140        -8.2761
  47   2.0000      -0.271980        -7.4010
  48   2.0000      -0.262970        -7.1558
  49   2.0000      -0.260405        -7.0860
  50   2.0000      -0.243586        -6.6283
  51   0.0000       0.055947         1.5224
  52   0.0000       0.068241         1.8569
  53   0.0000       0.083670         2.2768
  54   0.0000       0.096611         2.6289
  55   0.0000       0.103804         2.8247

MULLIKEN ATOMIC CHARGES
-----------------------
   0 C :    0.302335
   1 C :   -0.303111
   2 C :   -0.302143
   3 C :   -0.000373
   4 O :   -0.495464
   5 H :    0.170341
   6 H :    0.157519
   7 H :    0.152558
   8 H :    0.146701
   9 H :    0.156626
  10 H :    0.154614
  11 H :    0.146143
  12 C :   -0.036322
  13 H :    0.162264
  14 H :    0.150358
  15 O :   -0.545729
  16 C :    0.048567
  17 C :    0.102618
  18 C :   -0.314073
  19 C :   -0.018107
  20 O :   -0.520424
  21 H :    0.158998
  22 H :    0.158331
  23 O :   -0.617387
  24 H :    0.158177
  25 H :    0.147111
  26 H :    0.145187
  27 H :    0.151995
  28 H :    0.382689
Sum of atomic charges:    0.0000000

LOEWDIN ATOMIC CHARGES
----------------------
   0 C :    0.178760
   1 C :   -0.233583
   2 C :   -0.216474
   3 C :   -0.026237
   4 O :   -0.298967
   5 H :    0.111489
   6 H :    0.122350
   7 H :    0.116697
   8 H :    0.116884
   9 H :    0.113888
  10 H :    0.109510
  11 H :    0.104737
  12 C :   -0.053829
  13 H :    0.116045
  14 H :    0.104781
  15 O :   -0.349515
  16 C :    0.001235
  17 C :    0.037338
  18 C :   -0.240154
  19 C :   -0.031453
  20 O :   -0.322925
  21 H :    0.110152
  22 H :    0.113685
  23 O :   -0.417838
  24 H :    0.124326
  25 H :    0.111553
  26 H :    0.103860
  27 H :    0.107663
  28 H :    0.286021

  Mayer bond orders larger than 0.100000
B(  0-C ,  1-C ) :   0.9365 B(  0-C ,  4-O ) :   0.9339 B(  0-C ,  5-H ) :   0.9096
B(  0-C , 15-O ) :   0.7981 B(  1-C ,  2-C ) :   0.9463 B(  1-C ,  6-H ) :   0.9342
B(  1-C ,  7-H ) :   0.9191 B(  2-C ,  3-C ) :   0.9534 B(  2-C ,  8-H ) :   0.9448
B(  2-C ,  9-H ) :   0.9442 B(  3-C ,  4-O ) :   0.8328 B(  3-C , 10-H ) :   0.9348
B(  3-C , 11-H ) :   0.9394 B( 12-C , 13-H ) :   0.9340 B( 12-C , 14-H ) :   0.9194
B( 12-C , 15-O ) :   0.8184 B( 12-C , 16-C ) :   0.8815 B( 16-C , 17-C ) :   0.8941
B( 16-C , 20-O ) :   0.8463 B( 16-C , 21-H ) :   0.9170 B( 17-C , 18-C ) :   0.9067
B( 17-C , 22-H ) :   0.9345 B( 17-C , 23-O ) :   0.9235 B( 18-C , 19-C ) :   0.9397
B( 18-C , 24-H ) :   0.9427 B( 18-C , 25-H ) :   0.9425 B( 19-C , 20-O ) :   0.8334
B( 19-C , 26-H ) :   0.9336 B( 19-C , 27-H ) :   0.9383 B( 23-O , 28-H ) :   0.7434

FINAL SINGLE POINT ENERGY      -652.854581087739

DIPOLE MOMENT
-------------
                                X             Y             Z
Electronic contribution:     -0.21340      -3.21630       0.21401
Nuclear contribution   :      0.21373       4.22470      -0.40238
                        -----------------------------------------
Total Dipole Moment    :      0.00033       1.00841      -0.18837
                        -----------------------------------------
Magnitude (a.u.)       :      1.02585
Magnitude (Debye)      :      2.60750

Rotational constants in cm-1:     0.059800     0.014522     0.013076
Rotational constants in MHz :  1792.751069   435.373017   392.017286

                             ****ORCA TERMINATED NORMALLY****
TOTAL RUN TIME: 0 days 0 hours 20 minutes 59 seconds 690 msec
