                         Program Version 4.2.1 -  RELEASE  -
|  1> # Test redundant internal optimization
|  2> #
|  3> ! RKS B3LYP  Opt TightSCF SmallPrint
|  4>
|  5> %basis
|  6>         Basis "6-31G"
|  7> end
|  8>
|  9> %geom
| 10> Constraints
| 11> { D 4  0  19  14  270.0   C } # D for Dihedral angle
| 12> { D 0  19  14  12  165.0   C } # D for Dihedral angle
| 13> { D 0  4  3  2   C } # D for Dihedral angle
| 14> { D 4  3  2  1   C } # D for Dihedral angle
| 15> { D 3  2  1  0   C } # D for Dihedral angle
| 16> { D 2  1  0  4   C } # D for Dihedral angle
| 17> { D 1  0  4  3   C } # D for Dihedral angle
| 18> { D 14  15  16  17   C } # D for Dihedral angle
| 19> { D 15  16  17  12   C } # D for Dihedral angle
| 20> { D 16  17  12  14   C } # D for Dihedral angle
| 21> { D 17  12  14  15   C } # D for Dihedral angle
| 22> { D 12  14  15  16   C } # D for Dihedral angle
| 23> end
| 24> end
| 25>
| 26>
| 27> #%pal
| 28> #nprocs 8
| 29> #end
| 30>
| 31> * xyz 0 1
| 32> C  -21.048   26.222   46.251
| 33> C  -20.361   27.558   45.944
| 34> C  -20.329   28.222   47.341
| 35> C  -20.110   27.022   48.296
| 36> O  -20.473   25.807   47.535
| 37> H  -20.833   25.428   45.533
| 38> H  -19.344   27.382   45.576
| 39> H  -20.898   28.157   45.201
| 40> H  -19.543   28.978   47.434
| 41> H  -21.289   28.710   47.548
| 42> H  -20.733   27.082   49.195
| 43> H  -19.064   26.913   48.597
| 44> C  -24.666   25.349   46.584
| 45> H  -25.177   24.376   46.648
| 46> C  -23.226   25.191   46.082
| 47> C  -23.440   25.030   44.559
| 48> C  -24.650   25.955   44.274
| 49> O  -25.308   26.200   45.576
| 50> H  -24.757   25.864   47.542
| 51> O  -22.472   26.381   46.366
| 52> H  -22.705   24.338   46.531
| 53> H  -22.557   25.306   43.974
| 54> H  -23.686   23.988   44.321
| 55> H  -25.372   25.502   43.586
| 56> H  -24.347   26.929   43.878
| 57> *
| 58>
| 59>                          ****END OF INPUT****
 Total Charge           Charge          ....    0
 Multiplicity           Mult            ....    1
 Number of Electrons    NEL             ....   86
FINAL SINGLE POINT ENERGY      -538.434288340833
FINAL SINGLE POINT ENERGY      -538.436118311325
FINAL SINGLE POINT ENERGY      -538.436424042475
FINAL SINGLE POINT ENERGY      -538.436440519382
FINAL SINGLE POINT ENERGY      -538.436446026689
                    ***********************HURRAY********************

CARTESIAN COORDINATES (ANGSTROEM)
---------------------------------
  C    -20.985323   26.195214   46.226717
  C    -20.389933   27.577406   45.955283
  C    -20.407542   28.212861   47.365371
  C    -20.113010   27.011923   48.292115
  O    -20.396469   25.797110   47.487907
  H    -20.729139   25.415285   45.503931
  H    -19.363041   27.465131   45.588379
  H    -20.973100   28.138250   45.222269
  H    -19.670719   29.014228   47.475906
  H    -21.401111   28.622381   47.568935
  H    -20.741348   26.997815   49.186246
  H    -19.061460   26.951893   48.588798
  C    -24.625066   25.421683   46.588368
  H    -25.182836   24.479550   46.691808
  C    -23.214335   25.159312   46.062054
  C    -23.472157   24.979065   44.554177
  C    -24.624258   25.972366   44.269571
  O    -25.233341   26.287678   45.577670
  H    -24.626279   25.963755   47.534292
  O    -22.415957   26.352260   46.335931
  H    -22.743710   24.286294   46.529761
  H    -22.581563   25.179123   43.951025
  H    -23.783227   23.945348   44.361229
  H    -25.388002   25.549268   43.607141
  H    -24.265073   26.914801   43.847116

 Multiplicity           Mult            ....    1
 Number of Electrons    NEL             ....   86
 Basis Dimension        Dim             ....  127

ORBITAL ENERGIES
----------------

  NO   OCC          E(Eh)            E(eV)
   0   2.0000     -19.142118      -520.8835
   1   2.0000     -19.136809      -520.7391
   2   2.0000     -19.126874      -520.4687
   3   2.0000     -10.277908      -279.6761
   4   2.0000     -10.239265      -278.6246
   5   2.0000     -10.222613      -278.1714
   6   2.0000     -10.220861      -278.1238
   7   2.0000     -10.220425      -278.1119
   8   2.0000     -10.188296      -277.2376
   9   2.0000     -10.183559      -277.1087
  10   2.0000     -10.182526      -277.0806
  11   2.0000      -1.053192       -28.6588
  12   2.0000      -1.013461       -27.5777
  13   2.0000      -0.989186       -26.9171
  14   2.0000      -0.790688       -21.5157
  15   2.0000      -0.775371       -21.0989
  16   2.0000      -0.741952       -20.1895
  17   2.0000      -0.718736       -19.5578
  18   2.0000      -0.608213       -16.5503
  19   2.0000      -0.598776       -16.2935
  20   2.0000      -0.595355       -16.2004
  21   2.0000      -0.574224       -15.6254
  22   2.0000      -0.523369       -14.2416
  23   2.0000      -0.501225       -13.6390
  24   2.0000      -0.482983       -13.1426
  25   2.0000      -0.476417       -12.9640
  26   2.0000      -0.455816       -12.4034
  27   2.0000      -0.438244       -11.9252
  28   2.0000      -0.425329       -11.5738
  29   2.0000      -0.419278       -11.4091
  30   2.0000      -0.401226       -10.9179
  31   2.0000      -0.382395       -10.4055
  32   2.0000      -0.377306       -10.2670
  33   2.0000      -0.367311        -9.9950
  34   2.0000      -0.357086        -9.7168
  35   2.0000      -0.353671        -9.6239
  36   2.0000      -0.342497        -9.3198
  37   2.0000      -0.323041        -8.7904
  38   2.0000      -0.303178        -8.2499
  39   2.0000      -0.296302        -8.0628
  40   2.0000      -0.268574        -7.3083
  41   2.0000      -0.248803        -6.7703
  42   2.0000      -0.232555        -6.3281
  43   0.0000       0.078957         2.1485
  44   0.0000       0.095870         2.6087
  45   0.0000       0.101014         2.7487
  46   0.0000       0.110348         3.0027
  47   0.0000       0.118043         3.2121

MULLIKEN ATOMIC CHARGES
-----------------------
   0 C :    0.282572
   1 C :   -0.256045
   2 C :   -0.299759
   3 C :   -0.001117
   4 O :   -0.511509
   5 H :    0.137197
   6 H :    0.142398
   7 H :    0.153882
   8 H :    0.140046
   9 H :    0.167633
  10 H :    0.148001
  11 H :    0.140354
  12 C :    0.003483
  13 H :    0.126165
  14 C :    0.059433
  15 C :   -0.293856
  16 C :    0.005439
  17 O :   -0.519903
  18 H :    0.166488
  19 O :   -0.509838
  20 H :    0.145741
  21 H :    0.147197
  22 H :    0.141151
  23 H :    0.136405
  24 H :    0.148442
Sum of atomic charges:    0.0000000

LOEWDIN ATOMIC CHARGES
----------------------
   0 C :    0.170292
   1 C :   -0.216091
   2 C :   -0.215937
   3 C :   -0.026928
   4 O :   -0.329300
   5 H :    0.095642
   6 H :    0.112357
   7 H :    0.122387
   8 H :    0.113043
   9 H :    0.121739
  10 H :    0.105929
  11 H :    0.101537
  12 C :   -0.032644
  13 H :    0.092276
  14 C :    0.036210
  15 C :   -0.235913
  16 C :   -0.028109
  17 O :   -0.328844
  18 H :    0.122949
  19 O :   -0.320723
  20 H :    0.105919
  21 H :    0.117075
  22 H :    0.112854
  23 H :    0.098560
  24 H :    0.105721

  Mayer bond orders larger than 0.100000
B(  0-C ,  1-C ) :   0.9471 B(  0-C ,  4-O ) :   0.9127 B(  0-C ,  5-H ) :   0.9170
B(  0-C , 19-O ) :   0.8599 B(  1-C ,  2-C ) :   0.9575 B(  1-C ,  6-H ) :   0.9401
B(  1-C ,  7-H ) :   0.9367 B(  2-C ,  3-C ) :   0.9549 B(  2-C ,  8-H ) :   0.9453
B(  2-C ,  9-H ) :   0.9431 B(  3-C ,  4-O ) :   0.8376 B(  3-C , 10-H ) :   0.9355
B(  3-C , 11-H ) :   0.9403 B( 12-C , 13-H ) :   0.9159 B( 12-C , 14-C ) :   0.9377
B( 12-C , 17-O ) :   0.8685 B( 12-C , 18-H ) :   0.9309 B( 14-C , 15-C ) :   0.9327
B( 14-C , 19-O ) :   0.8308 B( 14-C , 20-H ) :   0.9185 B( 15-C , 16-C ) :   0.9425
B( 15-C , 21-H ) :   0.9391 B( 15-C , 22-H ) :   0.9374 B( 16-C , 17-O ) :   0.8601
B( 16-C , 23-H ) :   0.9328 B( 16-C , 24-H ) :   0.9366

FINAL SINGLE POINT ENERGY      -538.436446408993

DIPOLE MOMENT
-------------
                                X             Y             Z
Electronic contribution:     -1.66639      -1.30452       1.29865
Nuclear contribution   :      2.38452       1.09797      -1.74639
                        -----------------------------------------
Total Dipole Moment    :      0.71814      -0.20655      -0.44775
                        -----------------------------------------
Magnitude (a.u.)       :      0.87112
Magnitude (Debye)      :      2.21422

Rotational constants in cm-1:     0.082314     0.019825     0.019472
Rotational constants in MHz :  2467.705692   594.338905   583.761456

                             ****ORCA TERMINATED NORMALLY****
TOTAL RUN TIME: 0 days 0 hours 12 minutes 10 seconds 730 msec
