                         Program Version 4.2.0 -  RELEASE  -
|  1> # Test redundant internal optimization
|  2> #
|  3> ! RKS B3LYP  Opt TightSCF SmallPrint
|  4>
|  5> %basis
|  6>         Basis "6-31G"
|  7> end
|  8>
|  9> %geom
| 10> Constraints
| 11> { D 4  0  15  12  165.0   C } # D for Dihedral angle
| 12> { D 0  15  12  16  150.0   C } # D for Dihedral angle
| 13> { D 0  4  3  2   C } # D for Dihedral angle
| 14> { D 4  3  2  1   C } # D for Dihedral angle
| 15> { D 3  2  1  0   C } # D for Dihedral angle
| 16> { D 2  1  0  4   C } # D for Dihedral angle
| 17> { D 1  0  4  3   C } # D for Dihedral angle
| 18> { D 16  20  19  18   C } # D for Dihedral angle
| 19> { D 20  19  18  17   C } # D for Dihedral angle
| 20> { D 19  18  17  16   C } # D for Dihedral angle
| 21> { D 18  17  16  20   C } # D for Dihedral angle
| 22> { D 17  16  20  19   C } # D for Dihedral angle
| 23> { D 15  12  16  20   C } # D for Dihedral angle
| 24> end
| 25> end
| 26>
| 27>
| 28> #%pal
| 29> #nprocs 8
| 30> #end
| 31>
| 32> * xyz 0 1
| 33> C  -21.048   26.222   46.251
| 34> C  -20.361   27.558   45.944
| 35> C  -20.329   28.222   47.341
| 36> C  -20.110   27.022   48.296
| 37> O  -20.473   25.807   47.535
| 38> H  -20.833   25.428   45.533
| 39> H  -19.344   27.382   45.576
| 40> H  -20.898   28.157   45.201
| 41> H  -19.543   28.978   47.434
| 42> H  -21.289   28.710   47.548
| 43> H  -20.733   27.082   49.195
| 44> H  -19.064   26.913   48.597
| 45> C  -23.260   27.170   45.210
| 46> H  -23.268   28.242   45.446
| 47> H  -22.697   27.029   44.278
| 48> O  -22.586   26.394   46.375
| 49> C  -24.723   26.715   44.953
| 50> C  -25.317   27.418   43.727
| 51> C  -24.696   26.602   42.567
| 52> C  -24.641   25.164   43.139
| 53> O  -24.764   25.290   44.607
| 54> H  -25.303   26.839   45.870
| 55> O  -26.864   27.278   43.729
| 56> H  -25.066   28.483   43.678
| 57> H  -25.283   26.662   41.645
| 58> H  -23.687   26.969   42.347
| 59> H  -23.701   24.653   42.901
| 60> H  -25.476   24.546   42.798
| 61> H  -27.137   26.218   43.777
| 62> *
| 63>
| 64>                          ****END OF INPUT****
 Total Charge           Charge          ....    0
 Multiplicity           Mult            ....    1
 Number of Electrons    NEL             ....  102
FINAL SINGLE POINT ENERGY      -652.826825599236
FINAL SINGLE POINT ENERGY      -652.849882680963
FINAL SINGLE POINT ENERGY      -652.853955456237
FINAL SINGLE POINT ENERGY      -652.854689575002
FINAL SINGLE POINT ENERGY      -652.854783792291
FINAL SINGLE POINT ENERGY      -652.854794264893
                    ***********************HURRAY********************

CARTESIAN COORDINATES (ANGSTROEM)
---------------------------------
  C    -21.075418   26.267890   46.163129
  C    -20.289574   27.561956   45.955406
  C    -20.382280   28.225580   47.354016
  C    -20.340231   27.012145   48.305822
  O    -20.682956   25.833338   47.470561
  H    -20.844656   25.459804   45.462535
  H    -19.250624   27.307822   45.714969
  H    -20.674507   28.197507   45.153587
  H    -19.566087   28.930605   47.537446
  H    -21.330859   28.763078   47.452394
  H    -21.060919   27.080525   49.124372
  H    -19.342417   26.826240   48.713935
  C    -23.121647   27.220980   45.113651
  H    -23.149254   28.294899   45.351913
  H    -22.546705   27.091822   44.183924
  O    -22.521126   26.471136   46.197807
  C    -24.545226   26.701658   44.919354
  C    -25.311445   27.372686   43.770800
  C    -24.803410   26.571409   42.542732
  C    -24.623521   25.140984   43.108891
  O    -24.572416   25.276617   44.584472
  H    -25.081981   26.800382   45.867885
  O    -26.746674   27.227302   43.949171
  H    -25.138636   28.446931   43.686961
  H    -25.526805   26.620974   41.724907
  H    -23.852789   26.983366   42.185609
  H    -23.703968   24.659694   42.761303
  H    -25.468575   24.485980   42.873505
  H    -26.939295   26.319687   44.266943

 Multiplicity           Mult            ....    1
 Number of Electrons    NEL             ....  102
 Basis Dimension        Dim             ....  149

ORBITAL ENERGIES
----------------

  NO   OCC          E(Eh)            E(eV)
   0   2.0000     -19.141266      -520.8603
   1   2.0000     -19.140185      -520.8309
   2   2.0000     -19.139195      -520.8040
   3   2.0000     -19.136949      -520.7428
   4   2.0000     -10.279041      -279.7069
   5   2.0000     -10.244987      -278.7803
   6   2.0000     -10.236438      -278.5476
   7   2.0000     -10.234707      -278.5005
   8   2.0000     -10.231479      -278.4127
   9   2.0000     -10.225222      -278.2424
  10   2.0000     -10.191886      -277.3353
  11   2.0000     -10.190912      -277.3088
  12   2.0000     -10.190186      -277.2891
  13   2.0000      -1.053008       -28.6538
  14   2.0000      -1.037148       -28.2222
  15   2.0000      -1.007513       -27.4158
  16   2.0000      -0.991894       -26.9908
  17   2.0000      -0.789158       -21.4741
  18   2.0000      -0.785648       -21.3786
  19   2.0000      -0.769733       -20.9455
  20   2.0000      -0.732508       -19.9326
  21   2.0000      -0.678554       -18.4644
  22   2.0000      -0.605966       -16.4892
  23   2.0000      -0.604234       -16.4420
  24   2.0000      -0.593164       -16.1408
  25   2.0000      -0.580857       -15.8059
  26   2.0000      -0.527779       -14.3616
  27   2.0000      -0.509529       -13.8650
  28   2.0000      -0.497124       -13.5274
  29   2.0000      -0.493991       -13.4422
  30   2.0000      -0.479128       -13.0377
  31   2.0000      -0.461991       -12.5714
  32   2.0000      -0.450857       -12.2684
  33   2.0000      -0.449025       -12.2186
  34   2.0000      -0.421840       -11.4789
  35   2.0000      -0.414533       -11.2800
  36   2.0000      -0.400858       -10.9079
  37   2.0000      -0.395340       -10.7577
  38   2.0000      -0.377970       -10.2851
  39   2.0000      -0.373871       -10.1736
  40   2.0000      -0.367334        -9.9957
  41   2.0000      -0.358134        -9.7453
  42   2.0000      -0.353045        -9.6068
  43   2.0000      -0.333648        -9.0790
  44   2.0000      -0.313131        -8.5207
  45   2.0000      -0.307073        -8.3559
  46   2.0000      -0.298992        -8.1360
  47   2.0000      -0.272633        -7.4187
  48   2.0000      -0.259080        -7.0499
  49   2.0000      -0.254177        -6.9165
  50   2.0000      -0.242336        -6.5943
  51   0.0000       0.061722         1.6795
  52   0.0000       0.078800         2.1443
  53   0.0000       0.083883         2.2826
  54   0.0000       0.098746         2.6870
  55   0.0000       0.106467         2.8971

MULLIKEN ATOMIC CHARGES
-----------------------
   0 C :    0.311234
   1 C :   -0.289678
   2 C :   -0.299961
   3 C :    0.000327
   4 O :   -0.497499
   5 H :    0.147946
   6 H :    0.150106
   7 H :    0.141025
   8 H :    0.143970
   9 H :    0.155635
  10 H :    0.155964
  11 H :    0.142444
  12 C :   -0.008171
  13 H :    0.128835
  14 H :    0.121492
  15 O :   -0.502347
  16 C :    0.069240
  17 C :    0.075872
  18 C :   -0.296748
  19 C :   -0.029770
  20 O :   -0.506461
  21 H :    0.173364
  22 O :   -0.602500
  23 H :    0.149741
  24 H :    0.165537
  25 H :    0.138012
  26 H :    0.145739
  27 H :    0.148678
  28 H :    0.367975
Sum of atomic charges:   -0.0000000

LOEWDIN ATOMIC CHARGES
----------------------
   0 C :    0.184508
   1 C :   -0.235803
   2 C :   -0.217050
   3 C :   -0.025284
   4 O :   -0.299993
   5 H :    0.100967
   6 H :    0.117628
   7 H :    0.112366
   8 H :    0.115119
   9 H :    0.114654
  10 H :    0.110330
  11 H :    0.102924
  12 C :   -0.044937
  13 H :    0.094463
  14 H :    0.089671
  15 O :   -0.326176
  16 C :    0.017640
  17 C :    0.034595
  18 C :   -0.242289
  19 C :   -0.038835
  20 O :   -0.317438
  21 H :    0.122823
  22 O :   -0.414313
  23 H :    0.114178
  24 H :    0.127740
  25 H :    0.109905
  26 H :    0.103752
  27 H :    0.103617
  28 H :    0.285239

  Mayer bond orders larger than 0.100000
B(  0-C ,  1-C ) :   0.9274 B(  0-C ,  4-O ) :   0.9398 B(  0-C ,  5-H ) :   0.9209
B(  0-C , 15-O ) :   0.8360 B(  1-C ,  2-C ) :   0.9504 B(  1-C ,  6-H ) :   0.9339
B(  1-C ,  7-H ) :   0.9299 B(  2-C ,  3-C ) :   0.9552 B(  2-C ,  8-H ) :   0.9451
B(  2-C ,  9-H ) :   0.9453 B(  3-C ,  4-O ) :   0.8365 B(  3-C , 10-H ) :   0.9340
B(  3-C , 11-H ) :   0.9397 B( 12-C , 13-H ) :   0.9087 B( 12-C , 14-H ) :   0.9152
B( 12-C , 15-O ) :   0.8522 B( 12-C , 16-C ) :   0.8920 B( 16-C , 17-C ) :   0.8984
B( 16-C , 20-O ) :   0.8675 B( 16-C , 21-H ) :   0.9228 B( 17-C , 18-C ) :   0.9100
B( 17-C , 22-O ) :   0.8967 B( 17-C , 23-H ) :   0.9326 B( 18-C , 19-C ) :   0.9400
B( 18-C , 24-H ) :   0.9370 B( 18-C , 25-H ) :   0.9346 B( 19-C , 20-O ) :   0.8527
B( 19-C , 26-H ) :   0.9346 B( 19-C , 27-H ) :   0.9371 B( 22-O , 28-H ) :   0.7921

FINAL SINGLE POINT ENERGY      -652.854796620398

DIPOLE MOMENT
-------------
                                X             Y             Z
Electronic contribution:     -3.75711      -4.13441       2.21519
Nuclear contribution   :      4.66106       5.16128      -3.16798
                        -----------------------------------------
Total Dipole Moment    :      0.90394       1.02687      -0.95280
                        -----------------------------------------
Magnitude (a.u.)       :      1.66715
Magnitude (Debye)      :      4.23756

Rotational constants in cm-1:     0.066019     0.011440     0.011102
Rotational constants in MHz :  1979.197638   342.958839   332.839371

                             ****ORCA TERMINATED NORMALLY****
TOTAL RUN TIME: 0 days 0 hours 19 minutes 35 seconds 707 msec
