                         Program Version 4.2.0 -  RELEASE  -
|  1> # Test redundant internal optimization
|  2> #
|  3> ! RKS B3LYP  Opt TightSCF SmallPrint
|  4>
|  5> %basis
|  6>         Basis "6-31G"
|  7> end
|  8>
|  9> %geom
| 10> Constraints
| 11> { D 4  0  15  12  165.0   C } # D for Dihedral angle
| 12> { D 0  15  12  16  90.0   C } # D for Dihedral angle
| 13> { D 0  4  3  2   C } # D for Dihedral angle
| 14> { D 4  3  2  1   C } # D for Dihedral angle
| 15> { D 3  2  1  0   C } # D for Dihedral angle
| 16> { D 2  1  0  4   C } # D for Dihedral angle
| 17> { D 1  0  4  3   C } # D for Dihedral angle
| 18> { D 16  20  19  18   C } # D for Dihedral angle
| 19> { D 20  19  18  17   C } # D for Dihedral angle
| 20> { D 19  18  17  16   C } # D for Dihedral angle
| 21> { D 18  17  16  20   C } # D for Dihedral angle
| 22> { D 17  16  20  19   C } # D for Dihedral angle
| 23> { D 15  12  16  20   C } # D for Dihedral angle
| 24> end
| 25> end
| 26>
| 27>
| 28> #%pal
| 29> #nprocs 8
| 30> #end
| 31>
| 32> * xyz 0 1
| 33> C  -21.048   26.222   46.251
| 34> C  -20.361   27.558   45.944
| 35> C  -20.329   28.222   47.341
| 36> C  -20.110   27.022   48.296
| 37> O  -20.473   25.807   47.535
| 38> H  -20.833   25.428   45.533
| 39> H  -19.344   27.382   45.576
| 40> H  -20.898   28.157   45.201
| 41> H  -19.543   28.978   47.434
| 42> H  -21.289   28.710   47.548
| 43> H  -20.733   27.082   49.195
| 44> H  -19.064   26.913   48.597
| 45> C  -23.260   27.170   45.210
| 46> H  -24.140   27.702   45.592
| 47> H  -22.567   27.911   44.791
| 48> O  -22.586   26.394   46.375
| 49> C  -23.715   26.239   44.052
| 50> C  -24.269   27.047   42.874
| 51> C  -22.969   27.526   42.184
| 52> C  -22.001   26.335   42.393
| 53> O  -22.566   25.521   43.490
| 54> H  -24.401   25.487   44.447
| 55> O  -25.082   26.122   41.928
| 56> H  -24.914   27.876   43.186
| 57> H  -23.114   27.766   41.125
| 58> H  -22.588   28.426   42.682
| 59> H  -20.991   26.659   42.670
| 60> H  -21.937   25.690   41.512
| 61> H  -24.455   25.285   41.603
| 62> *
| 63>
| 64>                          ****END OF INPUT****
 Total Charge           Charge          ....    0
 Multiplicity           Mult            ....    1
 Number of Electrons    NEL             ....  102
FINAL SINGLE POINT ENERGY      -652.828826951336
FINAL SINGLE POINT ENERGY      -652.852158946040
FINAL SINGLE POINT ENERGY      -652.856870614990
FINAL SINGLE POINT ENERGY      -652.857783240734
FINAL SINGLE POINT ENERGY      -652.857901794401
FINAL SINGLE POINT ENERGY      -652.857919534151
                    ***********************HURRAY********************

CARTESIAN COORDINATES (ANGSTROEM)
---------------------------------
  C    -21.009767   26.264574   46.179938
  C    -20.214351   27.556678   45.994509
  C    -20.319893   28.207903   47.398939
  C    -20.295511   26.983067   48.337699
  O    -20.634176   25.816128   47.488284
  H    -20.785737   25.466395   45.472155
  H    -19.175285   27.289144   45.769230
  H    -20.568545   28.208035   45.192206
  H    -19.500935   28.905204   47.599650
  H    -21.265877   28.750401   47.491621
  H    -21.023972   27.048867   49.149951
  H    -19.302950   26.789612   48.755671
  C    -23.140617   27.216871   45.193255
  H    -24.023176   27.652353   45.675167
  H    -22.521180   28.038139   44.810184
  O    -22.463068   26.465732   46.228800
  C    -23.586241   26.294571   44.057574
  C    -24.285526   26.991952   42.881126
  C    -23.074832   27.508945   42.059747
  C    -22.013401   26.397629   42.256820
  O    -22.434867   25.614876   43.445828
  H    -24.211664   25.503563   44.481850
  O    -25.091767   26.053273   42.119083
  H    -24.972498   27.784954   43.181397
  H    -23.352306   27.653071   41.012903
  H    -22.727246   28.468155   42.458718
  H    -21.009069   26.797015   42.428914
  H    -21.970847   25.702979   41.412195
  H    -24.604699   25.206912   42.031587

 Multiplicity           Mult            ....    1
 Number of Electrons    NEL             ....  102
 Basis Dimension        Dim             ....  149

ORBITAL ENERGIES
----------------

  NO   OCC          E(Eh)            E(eV)
   0   2.0000     -19.150316      -521.1066
   1   2.0000     -19.142637      -520.8976
   2   2.0000     -19.134831      -520.6852
   3   2.0000     -19.134663      -520.6807
   4   2.0000     -10.271962      -279.5143
   5   2.0000     -10.247781      -278.8563
   6   2.0000     -10.237681      -278.5815
   7   2.0000     -10.235493      -278.5219
   8   2.0000     -10.234429      -278.4930
   9   2.0000     -10.222089      -278.1572
  10   2.0000     -10.195485      -277.4332
  11   2.0000     -10.188502      -277.2432
  12   2.0000     -10.187555      -277.2175
  13   2.0000      -1.049314       -28.5533
  14   2.0000      -1.039843       -28.2956
  15   2.0000      -1.011339       -27.5199
  16   2.0000      -0.987303       -26.8659
  17   2.0000      -0.789296       -21.4778
  18   2.0000      -0.785100       -21.3637
  19   2.0000      -0.770650       -20.9705
  20   2.0000      -0.731495       -19.9050
  21   2.0000      -0.679862       -18.5000
  22   2.0000      -0.609465       -16.5844
  23   2.0000      -0.604025       -16.4364
  24   2.0000      -0.595598       -16.2070
  25   2.0000      -0.573810       -15.6142
  26   2.0000      -0.531103       -14.4521
  27   2.0000      -0.507588       -13.8122
  28   2.0000      -0.501695       -13.6518
  29   2.0000      -0.490736       -13.3536
  30   2.0000      -0.479374       -13.0444
  31   2.0000      -0.459850       -12.5131
  32   2.0000      -0.452831       -12.3222
  33   2.0000      -0.444499       -12.0954
  34   2.0000      -0.428321       -11.6552
  35   2.0000      -0.404937       -11.0189
  36   2.0000      -0.403544       -10.9810
  37   2.0000      -0.400191       -10.8897
  38   2.0000      -0.379063       -10.3148
  39   2.0000      -0.375445       -10.2164
  40   2.0000      -0.366996        -9.9865
  41   2.0000      -0.354549        -9.6478
  42   2.0000      -0.352501        -9.5921
  43   2.0000      -0.336480        -9.1561
  44   2.0000      -0.314457        -8.5568
  45   2.0000      -0.308848        -8.4042
  46   2.0000      -0.293555        -7.9880
  47   2.0000      -0.277207        -7.5432
  48   2.0000      -0.269530        -7.3343
  49   2.0000      -0.253102        -6.8873
  50   2.0000      -0.237015        -6.4495
  51   0.0000       0.053517         1.4563
  52   0.0000       0.074918         2.0386
  53   0.0000       0.087538         2.3820
  54   0.0000       0.095757         2.6057
  55   0.0000       0.102885         2.7996

MULLIKEN ATOMIC CHARGES
-----------------------
   0 C :    0.310871
   1 C :   -0.297025
   2 C :   -0.298600
   3 C :    0.001777
   4 O :   -0.498420
   5 H :    0.172846
   6 H :    0.151892
   7 H :    0.137883
   8 H :    0.141350
   9 H :    0.153629
  10 H :    0.152689
  11 H :    0.140697
  12 C :   -0.019877
  13 H :    0.149945
  14 H :    0.116244
  15 O :   -0.510381
  16 C :    0.066711
  17 C :    0.076817
  18 C :   -0.289052
  19 C :   -0.035704
  20 O :   -0.519675
  21 H :    0.175037
  22 O :   -0.600893
  23 H :    0.154255
  24 H :    0.165275
  25 H :    0.138383
  26 H :    0.143947
  27 H :    0.152271
  28 H :    0.367107
Sum of atomic charges:   -0.0000000

LOEWDIN ATOMIC CHARGES
----------------------
   0 C :    0.183984
   1 C :   -0.234749
   2 C :   -0.217877
   3 C :   -0.025984
   4 O :   -0.301843
   5 H :    0.112537
   6 H :    0.118698
   7 H :    0.109051
   8 H :    0.113632
   9 H :    0.113614
  10 H :    0.108543
  11 H :    0.101874
  12 C :   -0.044272
  13 H :    0.113574
  14 H :    0.088075
  15 O :   -0.328361
  16 C :    0.006516
  17 C :    0.034623
  18 C :   -0.239727
  19 C :   -0.040499
  20 O :   -0.328900
  21 H :    0.123003
  22 O :   -0.413180
  23 H :    0.116607
  24 H :    0.128169
  25 H :    0.110446
  26 H :    0.102304
  27 H :    0.105365
  28 H :    0.284779

  Mayer bond orders larger than 0.100000
B(  0-C ,  1-C ) :   0.9308 B(  0-C ,  4-O ) :   0.9271 B(  0-C ,  5-H ) :   0.9134
B(  0-C , 15-O ) :   0.8233 B(  1-C ,  2-C ) :   0.9482 B(  1-C ,  6-H ) :   0.9343
B(  1-C ,  7-H ) :   0.9281 B(  2-C ,  3-C ) :   0.9558 B(  2-C ,  8-H ) :   0.9452
B(  2-C ,  9-H ) :   0.9463 B(  3-C ,  4-O ) :   0.8396 B(  3-C , 10-H ) :   0.9345
B(  3-C , 11-H ) :   0.9399 B( 12-C , 13-H ) :   0.9279 B( 12-C , 14-H ) :   0.9108
B( 12-C , 15-O ) :   0.8783 B( 12-C , 16-C ) :   0.8845 B( 16-C , 17-C ) :   0.8948
B( 16-C , 20-O ) :   0.8502 B( 16-C , 21-H ) :   0.9230 B( 17-C , 18-C ) :   0.9099
B( 17-C , 22-O ) :   0.8947 B( 17-C , 23-H ) :   0.9330 B( 18-C , 19-C ) :   0.9394
B( 18-C , 24-H ) :   0.9370 B( 18-C , 25-H ) :   0.9346 B( 19-C , 20-O ) :   0.8488
B( 19-C , 26-H ) :   0.9342 B( 19-C , 27-H ) :   0.9371 B( 22-O , 28-H ) :   0.7931

FINAL SINGLE POINT ENERGY      -652.857922748471

DIPOLE MOMENT
-------------
                                X             Y             Z
Electronic contribution:     -3.36305      -6.00609       0.46997
Nuclear contribution   :      4.10845       7.52142      -1.11315
                        -----------------------------------------
Total Dipole Moment    :      0.74540       1.51533      -0.64318
                        -----------------------------------------
Magnitude (a.u.)       :      1.80708
Magnitude (Debye)      :      4.59323

Rotational constants in cm-1:     0.066988     0.012628     0.012272
Rotational constants in MHz :  2008.236639   378.566455   367.905510

                             ****ORCA TERMINATED NORMALLY****
TOTAL RUN TIME: 0 days 2 hours 6 minutes 59 seconds 650 msec
