                         Program Version 4.2.0 -  RELEASE  -
|  1> # Test redundant internal optimization
|  2> #
|  3> ! RKS B3LYP  Opt TightSCF SmallPrint
|  4>
|  5> %basis
|  6>         Basis "6-31G"
|  7> end
|  8>
|  9> %geom
| 10> Constraints
| 11> { D 4  0  15  12  300.0   C } # D for Dihedral angle
| 12> { D 0  15  12  16  105.0   C } # D for Dihedral angle
| 13> { D 0  4  3  2   C } # D for Dihedral angle
| 14> { D 4  3  2  1   C } # D for Dihedral angle
| 15> { D 3  2  1  0   C } # D for Dihedral angle
| 16> { D 2  1  0  4   C } # D for Dihedral angle
| 17> { D 1  0  4  3   C } # D for Dihedral angle
| 18> { D 16  20  19  18   C } # D for Dihedral angle
| 19> { D 20  19  18  17   C } # D for Dihedral angle
| 20> { D 19  18  17  16   C } # D for Dihedral angle
| 21> { D 18  17  16  20   C } # D for Dihedral angle
| 22> { D 17  16  20  19   C } # D for Dihedral angle
| 23> { D 15  12  16  20   C } # D for Dihedral angle
| 24> end
| 25> end
| 26>
| 27>
| 28> #%pal
| 29> #nprocs 8
| 30> #end
| 31>
| 32> * xyz 0 1
| 33> C  -21.048   26.222   46.251
| 34> C  -20.361   27.558   45.944
| 35> C  -20.329   28.222   47.341
| 36> C  -20.110   27.022   48.296
| 37> O  -20.473   25.807   47.535
| 38> H  -20.833   25.428   45.533
| 39> H  -19.344   27.382   45.576
| 40> H  -20.898   28.157   45.201
| 41> H  -19.543   28.978   47.434
| 42> H  -21.289   28.710   47.548
| 43> H  -20.733   27.082   49.195
| 44> H  -19.064   26.913   48.597
| 45> C  -23.362   25.116   46.798
| 46> H  -24.245   25.000   46.157
| 47> H  -22.731   24.226   46.676
| 48> O  -22.586   26.394   46.375
| 49> C  -23.834   25.162   48.277
| 50> C  -24.492   23.842   48.693
| 51> C  -23.258   22.945   48.953
| 52> C  -22.222   23.935   49.541
| 53> O  -22.684   25.292   49.179
| 54> H  -24.458   26.045   48.426
| 55> H  -25.069   23.982   49.614
| 56> O  -25.438   23.263   47.606
| 57> H  -23.473   22.114   49.632
| 58> H  -22.895   22.521   48.009
| 59> H  -21.216   23.778   49.136
| 60> H  -22.175   23.891   50.633
| 61> H  -24.882   23.113   46.674
| 62> *
| 63>
| 64>                          ****END OF INPUT****
 Total Charge           Charge          ....    0
 Multiplicity           Mult            ....    1
 Number of Electrons    NEL             ....  102
FINAL SINGLE POINT ENERGY      -652.832470855857
FINAL SINGLE POINT ENERGY      -652.856670129744
FINAL SINGLE POINT ENERGY      -652.861837386408
FINAL SINGLE POINT ENERGY      -652.862740499846
FINAL SINGLE POINT ENERGY      -652.862893116057
FINAL SINGLE POINT ENERGY      -652.862930424807
FINAL SINGLE POINT ENERGY      -652.862934594482
                    ***********************HURRAY********************

CARTESIAN COORDINATES (ANGSTROEM)
---------------------------------
  C    -21.033790   26.182018   46.231047
  C    -20.490702   27.585579   45.971018
  C    -20.439152   28.175676   47.398407
  C    -20.060177   26.956677   48.268235
  O    -20.365084   25.761062   47.434802
  H    -20.806804   25.420982   45.476437
  H    -19.486127   27.510257   45.538455
  H    -21.129743   28.152872   45.291311
  H    -19.717406   28.993451   47.489079
  H    -21.428517   28.549971   47.675183
  H    -20.648432   26.880764   49.182786
  H    -18.990665   26.910187   48.495443
  C    -23.230470   25.150823   46.737699
  H    -24.116991   25.131732   46.094827
  H    -22.630252   24.249375   46.545985
  O    -22.471886   26.330533   46.357681
  C    -23.698685   25.196358   48.200467
  C    -24.455391   23.920659   48.606211
  C    -23.286490   22.957494   48.983060
  C    -22.252578   23.917322   49.613584
  O    -22.622217   25.286586   49.174082
  H    -24.300649   26.099692   48.336164
  H    -25.073962   24.126146   49.482612
  O    -25.384402   23.403716   47.621281
  H    -23.609442   22.167212   49.666066
  H    -22.891517   22.482572   48.075712
  H    -21.228655   23.720681   49.285665
  H    -22.293568   23.910594   50.707411
  H    -24.901247   22.969009   46.889288

 Multiplicity           Mult            ....    1
 Number of Electrons    NEL             ....  102
 Basis Dimension        Dim             ....  149

ORBITAL ENERGIES
----------------

  NO   OCC          E(Eh)            E(eV)
   0   2.0000     -19.148430      -521.0553
   1   2.0000     -19.138366      -520.7814
   2   2.0000     -19.134628      -520.6797
   3   2.0000     -19.132491      -520.6215
   4   2.0000     -10.272526      -279.5297
   5   2.0000     -10.242887      -278.7231
   6   2.0000     -10.227228      -278.2970
   7   2.0000     -10.227110      -278.2938
   8   2.0000     -10.224918      -278.2342
   9   2.0000     -10.211450      -277.8677
  10   2.0000     -10.192936      -277.3639
  11   2.0000     -10.177295      -276.9383
  12   2.0000     -10.175393      -276.8865
  13   2.0000      -1.046642       -28.4806
  14   2.0000      -1.031061       -28.0566
  15   2.0000      -1.012886       -27.5620
  16   2.0000      -0.987450       -26.8699
  17   2.0000      -0.782860       -21.3027
  18   2.0000      -0.777610       -21.1598
  19   2.0000      -0.760606       -20.6971
  20   2.0000      -0.724442       -19.7131
  21   2.0000      -0.674586       -18.3564
  22   2.0000      -0.608661       -16.5625
  23   2.0000      -0.589541       -16.0422
  24   2.0000      -0.585637       -15.9360
  25   2.0000      -0.572713       -15.5843
  26   2.0000      -0.524552       -14.2738
  27   2.0000      -0.510161       -13.8822
  28   2.0000      -0.491318       -13.3694
  29   2.0000      -0.480448       -13.0737
  30   2.0000      -0.465521       -12.6675
  31   2.0000      -0.451718       -12.2919
  32   2.0000      -0.441784       -12.0215
  33   2.0000      -0.428363       -11.6564
  34   2.0000      -0.418285       -11.3821
  35   2.0000      -0.415711       -11.3121
  36   2.0000      -0.399851       -10.8805
  37   2.0000      -0.393009       -10.6943
  38   2.0000      -0.378206       -10.2915
  39   2.0000      -0.366330        -9.9683
  40   2.0000      -0.347874        -9.4661
  41   2.0000      -0.345827        -9.4104
  42   2.0000      -0.338537        -9.2121
  43   2.0000      -0.328605        -8.9418
  44   2.0000      -0.321666        -8.7530
  45   2.0000      -0.312085        -8.4923
  46   2.0000      -0.291447        -7.9307
  47   2.0000      -0.270247        -7.3538
  48   2.0000      -0.266398        -7.2490
  49   2.0000      -0.250976        -6.8294
  50   2.0000      -0.228613        -6.2209
  51   0.0000       0.053109         1.4452
  52   0.0000       0.080167         2.1815
  53   0.0000       0.092916         2.5284
  54   0.0000       0.103623         2.8197
  55   0.0000       0.109059         2.9677

MULLIKEN ATOMIC CHARGES
-----------------------
   0 C :    0.291825
   1 C :   -0.264945
   2 C :   -0.298614
   3 C :   -0.006199
   4 O :   -0.511250
   5 H :    0.137735
   6 H :    0.140389
   7 H :    0.156190
   8 H :    0.135986
   9 H :    0.163588
  10 H :    0.172899
  11 H :    0.132546
  12 C :   -0.015166
  13 H :    0.149148
  14 H :    0.117209
  15 O :   -0.521055
  16 C :    0.106756
  17 C :    0.074794
  18 C :   -0.318968
  19 C :   -0.014522
  20 O :   -0.507434
  21 H :    0.158038
  22 H :    0.167897
  23 O :   -0.600461
  24 H :    0.155876
  25 H :    0.132974
  26 H :    0.162763
  27 H :    0.146688
  28 H :    0.355315
Sum of atomic charges:   -0.0000000

LOEWDIN ATOMIC CHARGES
----------------------
   0 C :    0.173621
   1 C :   -0.215544
   2 C :   -0.215140
   3 C :   -0.030556
   4 O :   -0.324654
   5 H :    0.092217
   6 H :    0.111377
   7 H :    0.123332
   8 H :    0.110952
   9 H :    0.119878
  10 H :    0.118477
  11 H :    0.097667
  12 C :   -0.051091
  13 H :    0.111631
  14 H :    0.090843
  15 O :   -0.325387
  16 C :    0.016146
  17 C :    0.032380
  18 C :   -0.240282
  19 C :   -0.031621
  20 O :   -0.311230
  21 H :    0.116150
  22 H :    0.119063
  23 O :   -0.408237
  24 H :    0.121785
  25 H :    0.104063
  26 H :    0.112867
  27 H :    0.104054
  28 H :    0.277238

  Mayer bond orders larger than 0.100000
B(  0-C ,  1-C ) :   0.9503 B(  0-C ,  4-O ) :   0.9179 B(  0-C ,  5-H ) :   0.9213
B(  0-C , 15-O ) :   0.8550 B(  1-C ,  2-C ) :   0.9583 B(  1-C ,  6-H ) :   0.9408
B(  1-C ,  7-H ) :   0.9365 B(  2-C ,  3-C ) :   0.9596 B(  2-C ,  8-H ) :   0.9454
B(  2-C ,  9-H ) :   0.9435 B(  3-C ,  4-O ) :   0.8233 B(  3-C , 10-H ) :   0.9213
B(  3-C , 11-H ) :   0.9409 B( 12-C , 13-H ) :   0.9188 B( 12-C , 14-H ) :   0.9216
B( 12-C , 15-O ) :   0.8523 B( 12-C , 16-C ) :   0.8905 B( 16-C , 17-C ) :   0.8697
B( 16-C , 20-O ) :   0.8728 B( 16-C , 21-H ) :   0.9326 B( 17-C , 18-C ) :   0.9260
B( 17-C , 22-H ) :   0.9326 B( 17-C , 23-O ) :   0.8945 B( 18-C , 19-C ) :   0.9417
B( 18-C , 24-H ) :   0.9416 B( 18-C , 25-H ) :   0.9401 B( 19-C , 20-O ) :   0.8385
B( 19-C , 26-H ) :   0.9239 B( 19-C , 27-H ) :   0.9375 B( 23-O , 28-H ) :   0.7981

FINAL SINGLE POINT ENERGY      -652.862935993811

DIPOLE MOMENT
-------------
                                X             Y             Z
Electronic contribution:     -2.87747      -0.85741      -0.59773
Nuclear contribution   :      3.43630       0.39928       0.47138
                        -----------------------------------------
Total Dipole Moment    :      0.55883      -0.45813      -0.12635
                        -----------------------------------------
Magnitude (a.u.)       :      0.73358
Magnitude (Debye)      :      1.86461

Rotational constants in cm-1:     0.053970     0.016441     0.014239
Rotational constants in MHz :  1617.985481   492.902455   426.870068

                             ****ORCA TERMINATED NORMALLY****
TOTAL RUN TIME: 0 days 2 hours 18 minutes 38 seconds 152 msec
