                         Program Version 4.2.0 -  RELEASE  -
|  1> # Test redundant internal optimization
|  2> #
|  3> ! RKS B3LYP  Opt TightSCF SmallPrint
|  4>
|  5> %basis
|  6>         Basis "6-31G"
|  7> end
|  8>
|  9> %geom
| 10> Constraints
| 11> { D 4  0  15  12  0.0   C } # D for Dihedral angle
| 12> { D 0  15  12  16  300.0   C } # D for Dihedral angle
| 13> { D 0  4  3  2   C } # D for Dihedral angle
| 14> { D 4  3  2  1   C } # D for Dihedral angle
| 15> { D 3  2  1  0   C } # D for Dihedral angle
| 16> { D 2  1  0  4   C } # D for Dihedral angle
| 17> { D 1  0  4  3   C } # D for Dihedral angle
| 18> { D 16  20  19  18   C } # D for Dihedral angle
| 19> { D 20  19  18  17   C } # D for Dihedral angle
| 20> { D 19  18  17  16   C } # D for Dihedral angle
| 21> { D 18  17  16  20   C } # D for Dihedral angle
| 22> { D 17  16  20  19   C } # D for Dihedral angle
| 23> { D 15  12  16  20   C } # D for Dihedral angle
| 24> end
| 25> end
| 26>
| 27>
| 28> #%pal
| 29> #nprocs 8
| 30> #end
| 31>
| 32> * xyz 0 1
| 33> C  -21.048   26.222   46.251
| 34> C  -20.361   27.558   45.944
| 35> C  -20.329   28.222   47.341
| 36> C  -20.110   27.022   48.296
| 37> O  -20.473   25.807   47.535
| 38> H  -20.833   25.428   45.533
| 39> H  -19.344   27.382   45.576
| 40> H  -20.898   28.157   45.201
| 41> H  -19.543   28.978   47.434
| 42> H  -21.289   28.710   47.548
| 43> H  -20.733   27.082   49.195
| 44> H  -19.064   26.913   48.597
| 45> C  -23.172   26.101   47.783
| 46> H  -22.726   26.789   48.512
| 47> H  -24.259   26.255   47.787
| 48> O  -22.586   26.394   46.375
| 49> C  -22.900   24.646   48.256
| 50> C  -23.589   24.357   49.594
| 51> C  -25.048   24.103   49.147
| 52> C  -24.878   23.397   47.778
| 53> O  -23.500   23.684   47.326
| 54> H  -21.823   24.464   48.254
| 55> O  -22.984   23.082   50.242
| 56> H  -23.502   25.182   50.310
| 57> H  -25.612   23.495   49.862
| 58> H  -25.577   25.056   49.027
| 59> H  -25.586   23.764   47.026
| 60> H  -24.973   22.310   47.854
| 61> H  -23.061   22.242   49.542
| 62> *
| 63>
| 64>                          ****END OF INPUT****
 Total Charge           Charge          ....    0
 Multiplicity           Mult            ....    1
 Number of Electrons    NEL             ....  102
FINAL SINGLE POINT ENERGY      -652.827645433115
FINAL SINGLE POINT ENERGY      -652.851037789260
FINAL SINGLE POINT ENERGY      -652.855265086705
FINAL SINGLE POINT ENERGY      -652.857587228142
FINAL SINGLE POINT ENERGY      -652.857825149369
FINAL SINGLE POINT ENERGY      -652.857868892509
                    ***********************HURRAY********************

CARTESIAN COORDINATES (ANGSTROEM)
---------------------------------
  C    -21.066530   26.237648   46.319157
  C    -20.467749   27.602407   45.972275
  C    -20.273761   28.228867   47.374216
  C    -19.896161   27.014448   48.252583
  O    -20.327977   25.811324   47.486945
  H    -20.916198   25.463554   45.564323
  H    -19.505003   27.458149   45.468113
  H    -21.127430   28.183621   45.325038
  H    -19.500979   29.003519   47.387482
  H    -21.211705   28.680630   47.714106
  H    -20.393023   27.009740   49.226863
  H    -18.817036   26.916304   48.401502
  C    -23.143511   26.062497   47.773849
  H    -22.799815   26.763348   48.551804
  H    -24.199848   26.265043   47.576538
  O    -22.508000   26.355704   46.502389
  C    -22.947890   24.629943   48.289786
  C    -23.702320   24.357676   49.599911
  C    -25.137738   24.068223   49.084310
  C    -24.882553   23.335394   47.741816
  O    -23.485776   23.636873   47.354260
  H    -21.881508   24.422465   48.385818
  O    -23.140379   23.211866   50.297194
  H    -23.660996   25.178953   50.317867
  H    -25.692335   23.460527   49.804057
  H    -25.684317   25.005873   48.932211
  H    -25.555698   23.667451   46.944852
  H    -24.965751   22.247947   47.836641
  H    -22.909011   22.522009   49.640093

 Multiplicity           Mult            ....    1
 Number of Electrons    NEL             ....  102
 Basis Dimension        Dim             ....  149

ORBITAL ENERGIES
----------------

  NO   OCC          E(Eh)            E(eV)
   0   2.0000     -19.152025      -521.1531
   1   2.0000     -19.135570      -520.7053
   2   2.0000     -19.134911      -520.6874
   3   2.0000     -19.134295      -520.6707
   4   2.0000     -10.277914      -279.6763
   5   2.0000     -10.238566      -278.6056
   6   2.0000     -10.234150      -278.4854
   7   2.0000     -10.231790      -278.4212
   8   2.0000     -10.225800      -278.2582
   9   2.0000     -10.222578      -278.1705
  10   2.0000     -10.192512      -277.3524
  11   2.0000     -10.186205      -277.1807
  12   2.0000     -10.185760      -277.1686
  13   2.0000      -1.054446       -28.6929
  14   2.0000      -1.030565       -28.0431
  15   2.0000      -1.001555       -27.2537
  16   2.0000      -0.990591       -26.9553
  17   2.0000      -0.792339       -21.5607
  18   2.0000      -0.779390       -21.2083
  19   2.0000      -0.763342       -20.7716
  20   2.0000      -0.734764       -19.9939
  21   2.0000      -0.672027       -18.2868
  22   2.0000      -0.604560       -16.4509
  23   2.0000      -0.601867       -16.3776
  24   2.0000      -0.598541       -16.2871
  25   2.0000      -0.569088       -15.4857
  26   2.0000      -0.517942       -14.0939
  27   2.0000      -0.514212       -13.9924
  28   2.0000      -0.498993       -13.5783
  29   2.0000      -0.487388       -13.2625
  30   2.0000      -0.470626       -12.8064
  31   2.0000      -0.460952       -12.5432
  32   2.0000      -0.446233       -12.1426
  33   2.0000      -0.440712       -11.9924
  34   2.0000      -0.417958       -11.3732
  35   2.0000      -0.410231       -11.1630
  36   2.0000      -0.399189       -10.8625
  37   2.0000      -0.388715       -10.5775
  38   2.0000      -0.375277       -10.2118
  39   2.0000      -0.369130       -10.0445
  40   2.0000      -0.361671        -9.8416
  41   2.0000      -0.359798        -9.7906
  42   2.0000      -0.352572        -9.5940
  43   2.0000      -0.334664        -9.1067
  44   2.0000      -0.322580        -8.7779
  45   2.0000      -0.311623        -8.4797
  46   2.0000      -0.297688        -8.1005
  47   2.0000      -0.267407        -7.2765
  48   2.0000      -0.262374        -7.1396
  49   2.0000      -0.254947        -6.9374
  50   2.0000      -0.231434        -6.2976
  51   0.0000       0.064533         1.7560
  52   0.0000       0.077778         2.1164
  53   0.0000       0.088865         2.4181
  54   0.0000       0.097320         2.6482
  55   0.0000       0.103697         2.8217

MULLIKEN ATOMIC CHARGES
-----------------------
   0 C :    0.303791
   1 C :   -0.257553
   2 C :   -0.310246
   3 C :   -0.017650
   4 O :   -0.515325
   5 H :    0.167324
   6 H :    0.145305
   7 H :    0.162016
   8 H :    0.148807
   9 H :    0.154306
  10 H :    0.144908
  11 H :    0.153662
  12 C :    0.000383
  13 H :    0.115693
  14 H :    0.153158
  15 O :   -0.530971
  16 C :    0.038704
  17 C :    0.078021
  18 C :   -0.302616
  19 C :   -0.029461
  20 O :   -0.515504
  21 H :    0.204701
  22 O :   -0.603962
  23 H :    0.146026
  24 H :    0.162830
  25 H :    0.142379
  26 H :    0.147620
  27 H :    0.147018
  28 H :    0.366636
Sum of atomic charges:   -0.0000000

LOEWDIN ATOMIC CHARGES
----------------------
   0 C :    0.183689
   1 C :   -0.219030
   2 C :   -0.219790
   3 C :   -0.033433
   4 O :   -0.318360
   5 H :    0.110871
   6 H :    0.114037
   7 H :    0.126523
   8 H :    0.117955
   9 H :    0.113717
  10 H :    0.101689
  11 H :    0.108234
  12 C :   -0.036522
  13 H :    0.087563
  14 H :    0.113956
  15 O :   -0.330789
  16 C :   -0.004953
  17 C :    0.034918
  18 C :   -0.243572
  19 C :   -0.039652
  20 O :   -0.325923
  21 H :    0.133318
  22 O :   -0.415598
  23 H :    0.111919
  24 H :    0.126333
  25 H :    0.111370
  26 H :    0.104612
  27 H :    0.102528
  28 H :    0.284390

  Mayer bond orders larger than 0.100000
B(  0-C ,  1-C ) :   0.9316 B(  0-C ,  4-O ) :   0.8931 B(  0-C ,  5-H ) :   0.9282
B(  0-C , 15-O ) :   0.8468 B(  1-C ,  2-C ) :   0.9522 B(  1-C ,  6-H ) :   0.9355
B(  1-C ,  7-H ) :   0.9362 B(  2-C ,  3-C ) :   0.9526 B(  2-C ,  8-H ) :   0.9446
B(  2-C ,  9-H ) :   0.9454 B(  3-C ,  4-O ) :   0.8284 B(  3-C , 10-H ) :   0.9321
B(  3-C , 11-H ) :   0.9395 B( 12-C , 13-H ) :   0.9082 B( 12-C , 14-H ) :   0.9393
B( 12-C , 15-O ) :   0.8572 B( 12-C , 16-C ) :   0.8783 B( 16-C , 17-C ) :   0.8969
B( 16-C , 20-O ) :   0.8499 B( 16-C , 21-H ) :   0.8992 B( 17-C , 18-C ) :   0.9088
B( 17-C , 22-O ) :   0.8938 B( 17-C , 23-H ) :   0.9337 B( 18-C , 19-C ) :   0.9428
B( 18-C , 24-H ) :   0.9375 B( 18-C , 25-H ) :   0.9340 B( 19-C , 20-O ) :   0.8536
B( 19-C , 26-H ) :   0.9336 B( 19-C , 27-H ) :   0.9374 B( 22-O , 28-H ) :   0.7931

FINAL SINGLE POINT ENERGY      -652.857873592211

DIPOLE MOMENT
-------------
                                X             Y             Z
Electronic contribution:      0.52562      -4.43536      -1.08718
Nuclear contribution   :     -0.61391       5.46304       1.19468
                        -----------------------------------------
Total Dipole Moment    :     -0.08829       1.02768       0.10751
                        -----------------------------------------
Magnitude (a.u.)       :      1.03706
Magnitude (Debye)      :      2.63598

Rotational constants in cm-1:     0.056735     0.014407     0.013133
Rotational constants in MHz :  1700.863372   431.907567   393.728460

                             ****ORCA TERMINATED NORMALLY****
TOTAL RUN TIME: 0 days 2 hours 15 minutes 28 seconds 157 msec
