                         Program Version 4.2.0 -  RELEASE  -
|  1> # Test redundant internal optimization
|  2> #
|  3> ! RKS B3LYP  Opt TightSCF SmallPrint
|  4>
|  5> %basis
|  6>         Basis "6-31G"
|  7> end
|  8>
|  9> %geom
| 10> Constraints
| 11> { D 4  0  15  12  165.0   C } # D for Dihedral angle
| 12> { D 0  15  12  16  120.0   C } # D for Dihedral angle
| 13> { D 0  4  3  2   C } # D for Dihedral angle
| 14> { D 4  3  2  1   C } # D for Dihedral angle
| 15> { D 3  2  1  0   C } # D for Dihedral angle
| 16> { D 2  1  0  4   C } # D for Dihedral angle
| 17> { D 1  0  4  3   C } # D for Dihedral angle
| 18> { D 16  20  19  18   C } # D for Dihedral angle
| 19> { D 20  19  18  17   C } # D for Dihedral angle
| 20> { D 19  18  17  16   C } # D for Dihedral angle
| 21> { D 18  17  16  20   C } # D for Dihedral angle
| 22> { D 17  16  20  19   C } # D for Dihedral angle
| 23> { D 15  12  16  20   C } # D for Dihedral angle
| 24> end
| 25> end
| 26>
| 27>
| 28> #%pal
| 29> #nprocs 8
| 30> #end
| 31>
| 32> * xyz 0 1
| 33> C  -21.048   26.222   46.251
| 34> C  -20.361   27.558   45.944
| 35> C  -20.329   28.222   47.341
| 36> C  -20.110   27.022   48.296
| 37> O  -20.473   25.807   47.535
| 38> H  -20.833   25.428   45.533
| 39> H  -19.344   27.382   45.576
| 40> H  -20.898   28.157   45.201
| 41> H  -19.543   28.978   47.434
| 42> H  -21.289   28.710   47.548
| 43> H  -20.733   27.082   49.195
| 44> H  -19.064   26.913   48.597
| 45> C  -23.260   27.170   45.210
| 46> H  -23.749   28.068   45.609
| 47> H  -22.509   27.486   44.475
| 48> O  -22.586   26.394   46.375
| 49> C  -24.327   26.324   44.463
| 50> C  -24.887   27.078   43.252
| 51> C  -23.765   26.869   42.206
| 52> C  -23.253   25.441   42.521
| 53> O  -23.717   25.120   43.888
| 54> H  -25.083   25.990   45.177
| 55> O  -26.210   26.416   42.776
| 56> H  -25.084   28.136   43.457
| 57> H  -24.122   26.966   41.176
| 58> H  -22.969   27.607   42.356
| 59> H  -22.160   25.371   42.488
| 60> H  -23.678   24.688   41.852
| 61> H  -26.035   25.356   42.564
| 62> *
| 63>
| 64>                          ****END OF INPUT****
 Total Charge           Charge          ....    0
 Multiplicity           Mult            ....    1
 Number of Electrons    NEL             ....  102
FINAL SINGLE POINT ENERGY      -652.826718210608
FINAL SINGLE POINT ENERGY      -652.849731090904
FINAL SINGLE POINT ENERGY      -652.854068370425
FINAL SINGLE POINT ENERGY      -652.854781314052
FINAL SINGLE POINT ENERGY      -652.854891030250
FINAL SINGLE POINT ENERGY      -652.854906077480
                    ***********************HURRAY********************

CARTESIAN COORDINATES (ANGSTROEM)
---------------------------------
  C    -21.045062   26.275261   46.160769
  C    -20.237401   27.560066   45.977627
  C    -20.336168   28.209213   47.383545
  C    -20.323142   26.982975   48.320009
  O    -20.673584   25.820294   47.467543
  H    -20.820981   25.470286   45.456489
  H    -19.200232   27.288235   45.748554
  H    -20.593662   28.216362   45.179961
  H    -19.510582   28.898493   47.584257
  H    -21.276949   28.760439   47.477468
  H    -21.051364   27.053130   49.131887
  H    -19.332698   26.777865   48.737081
  C    -23.135376   27.253178   45.142643
  H    -23.638829   28.115774   45.599579
  H    -22.409858   27.629387   44.410692
  O    -22.490222   26.490346   46.193310
  C    -24.165324   26.358809   44.452270
  C    -24.910064   27.011251   43.279201
  C    -23.892169   26.832538   42.122405
  C    -23.240352   25.462481   42.436300
  O    -23.529224   25.174822   43.862627
  H    -24.861271   25.984607   45.208354
  O    -26.160649   26.322502   43.007974
  H    -25.186156   28.052670   43.452218
  H    -24.400226   26.853211   41.155196
  H    -23.151869   27.640844   42.138868
  H    -22.156583   25.463301   42.282544
  H    -23.673290   24.647710   41.847888
  H    -26.015711   25.354950   43.078744

 Multiplicity           Mult            ....    1
 Number of Electrons    NEL             ....  102
 Basis Dimension        Dim             ....  149

ORBITAL ENERGIES
----------------

  NO   OCC          E(Eh)            E(eV)
   0   2.0000     -19.143782      -520.9288
   1   2.0000     -19.139692      -520.8175
   2   2.0000     -19.137642      -520.7617
   3   2.0000     -19.134818      -520.6849
   4   2.0000     -10.277238      -279.6579
   5   2.0000     -10.245055      -278.7821
   6   2.0000     -10.235170      -278.5131
   7   2.0000     -10.233658      -278.4720
   8   2.0000     -10.233154      -278.4583
   9   2.0000     -10.224078      -278.2113
  10   2.0000     -10.193388      -277.3762
  11   2.0000     -10.190565      -277.2994
  12   2.0000     -10.189356      -277.2665
  13   2.0000      -1.051004       -28.5993
  14   2.0000      -1.037465       -28.2309
  15   2.0000      -1.008088       -27.4315
  16   2.0000      -0.989183       -26.9171
  17   2.0000      -0.788467       -21.4553
  18   2.0000      -0.785818       -21.3832
  19   2.0000      -0.769765       -20.9464
  20   2.0000      -0.732211       -19.9245
  21   2.0000      -0.679208       -18.4822
  22   2.0000      -0.606807       -16.5121
  23   2.0000      -0.603783       -16.4298
  24   2.0000      -0.594532       -16.1780
  25   2.0000      -0.577839       -15.7238
  26   2.0000      -0.529088       -14.3972
  27   2.0000      -0.505850       -13.7649
  28   2.0000      -0.501633       -13.6501
  29   2.0000      -0.492231       -13.3943
  30   2.0000      -0.479136       -13.0380
  31   2.0000      -0.461008       -12.5447
  32   2.0000      -0.451124       -12.2757
  33   2.0000      -0.447455       -12.1759
  34   2.0000      -0.424278       -11.5452
  35   2.0000      -0.409892       -11.1537
  36   2.0000      -0.402484       -10.9522
  37   2.0000      -0.396918       -10.8007
  38   2.0000      -0.377817       -10.2809
  39   2.0000      -0.374907       -10.2017
  40   2.0000      -0.367386        -9.9971
  41   2.0000      -0.356449        -9.6995
  42   2.0000      -0.351912        -9.5760
  43   2.0000      -0.333887        -9.0855
  44   2.0000      -0.311592        -8.4788
  45   2.0000      -0.308756        -8.4017
  46   2.0000      -0.296380        -8.0649
  47   2.0000      -0.273139        -7.4325
  48   2.0000      -0.261328        -7.1111
  49   2.0000      -0.256560        -6.9813
  50   2.0000      -0.237951        -6.4750
  51   0.0000       0.060824         1.6551
  52   0.0000       0.078653         2.1403
  53   0.0000       0.085233         2.3193
  54   0.0000       0.098676         2.6851
  55   0.0000       0.105208         2.8629

MULLIKEN ATOMIC CHARGES
-----------------------
   0 C :    0.310671
   1 C :   -0.290501
   2 C :   -0.300125
   3 C :    0.000795
   4 O :   -0.496694
   5 H :    0.157660
   6 H :    0.150831
   7 H :    0.139516
   8 H :    0.142895
   9 H :    0.155303
  10 H :    0.154534
  11 H :    0.141796
  12 C :   -0.012221
  13 H :    0.136636
  14 H :    0.119807
  15 O :   -0.507427
  16 C :    0.071624
  17 C :    0.079770
  18 C :   -0.295346
  19 C :   -0.034434
  20 O :   -0.511330
  21 H :    0.173419
  22 O :   -0.600814
  23 H :    0.149647
  24 H :    0.163332
  25 H :    0.140093
  26 H :    0.143841
  27 H :    0.150327
  28 H :    0.366392
Sum of atomic charges:    0.0000000

LOEWDIN ATOMIC CHARGES
----------------------
   0 C :    0.186465
   1 C :   -0.235658
   2 C :   -0.217350
   3 C :   -0.025848
   4 O :   -0.300156
   5 H :    0.105493
   6 H :    0.117926
   7 H :    0.110708
   8 H :    0.114527
   9 H :    0.114477
  10 H :    0.109554
  11 H :    0.102528
  12 C :   -0.043172
  13 H :    0.103054
  14 H :    0.091348
  15 O :   -0.328791
  16 C :    0.012896
  17 C :    0.034709
  18 C :   -0.241668
  19 C :   -0.040803
  20 O :   -0.322993
  21 H :    0.122887
  22 O :   -0.413283
  23 H :    0.114512
  24 H :    0.127255
  25 H :    0.110213
  26 H :    0.102294
  27 H :    0.104510
  28 H :    0.284366

  Mayer bond orders larger than 0.100000
B(  0-C ,  1-C ) :   0.9295 B(  0-C ,  4-O ) :   0.9361 B(  0-C ,  5-H ) :   0.9197
B(  0-C , 15-O ) :   0.8335 B(  1-C ,  2-C ) :   0.9483 B(  1-C ,  6-H ) :   0.9337
B(  1-C ,  7-H ) :   0.9287 B(  2-C ,  3-C ) :   0.9557 B(  2-C ,  8-H ) :   0.9450
B(  2-C ,  9-H ) :   0.9461 B(  3-C ,  4-O ) :   0.8376 B(  3-C , 10-H ) :   0.9343
B(  3-C , 11-H ) :   0.9398 B( 12-C , 13-H ) :   0.9217 B( 12-C , 14-H ) :   0.9145
B( 12-C , 15-O ) :   0.8601 B( 12-C , 16-C ) :   0.8870 B( 16-C , 17-C ) :   0.8955
B( 16-C , 20-O ) :   0.8606 B( 16-C , 21-H ) :   0.9240 B( 17-C , 18-C ) :   0.9086
B( 17-C , 22-O ) :   0.8937 B( 17-C , 23-H ) :   0.9336 B( 18-C , 19-C ) :   0.9417
B( 18-C , 24-H ) :   0.9375 B( 18-C , 25-H ) :   0.9345 B( 19-C , 20-O ) :   0.8533
B( 19-C , 26-H ) :   0.9343 B( 19-C , 27-H ) :   0.9373 B( 22-O , 28-H ) :   0.7935

FINAL SINGLE POINT ENERGY      -652.854909094862

DIPOLE MOMENT
-------------
                                X             Y             Z
Electronic contribution:     -3.85082      -5.17325       1.43160
Nuclear contribution   :      4.77697       6.49933      -2.23211
                        -----------------------------------------
Total Dipole Moment    :      0.92615       1.32608      -0.80051
                        -----------------------------------------
Magnitude (a.u.)       :      1.80473
Magnitude (Debye)      :      4.58726

Rotational constants in cm-1:     0.067681     0.011678     0.011576
Rotational constants in MHz :  2029.039346   350.099254   347.038875

                             ****ORCA TERMINATED NORMALLY****
TOTAL RUN TIME: 0 days 0 hours 34 minutes 14 seconds 850 msec
