                         Program Version 4.2.0 -  RELEASE  -
|  1> # Test redundant internal optimization
|  2> #
|  3> ! RKS B3LYP  Opt TightSCF SmallPrint
|  4>
|  5> %basis
|  6>         Basis "6-31G"
|  7> end
|  8>
|  9> %geom
| 10> Constraints
| 11> { D 4  0  15  12  285.0   C } # D for Dihedral angle
| 12> { D 0  15  12  16  45.0   C } # D for Dihedral angle
| 13> { D 0  4  3  2   C } # D for Dihedral angle
| 14> { D 4  3  2  1   C } # D for Dihedral angle
| 15> { D 3  2  1  0   C } # D for Dihedral angle
| 16> { D 2  1  0  4   C } # D for Dihedral angle
| 17> { D 1  0  4  3   C } # D for Dihedral angle
| 18> { D 16  20  19  18   C } # D for Dihedral angle
| 19> { D 20  19  18  17   C } # D for Dihedral angle
| 20> { D 19  18  17  16   C } # D for Dihedral angle
| 21> { D 18  17  16  20   C } # D for Dihedral angle
| 22> { D 17  16  20  19   C } # D for Dihedral angle
| 23> { D 15  12  16  20   C } # D for Dihedral angle
| 24> end
| 25> end
| 26>
| 27>
| 28> #%pal
| 29> #nprocs 8
| 30> #end
| 31>
| 32> * xyz 0 1
| 33> C  -21.048   26.222   46.251
| 34> C  -20.361   27.558   45.944
| 35> C  -20.329   28.222   47.341
| 36> C  -20.110   27.022   48.296
| 37> O  -20.473   25.807   47.535
| 38> H  -20.833   25.428   45.533
| 39> H  -19.344   27.382   45.576
| 40> H  -20.898   28.157   45.201
| 41> H  -19.543   28.978   47.434
| 42> H  -21.289   28.710   47.548
| 43> H  -20.733   27.082   49.195
| 44> H  -19.064   26.913   48.597
| 45> C  -23.396   25.070   46.435
| 46> H  -24.416   25.285   46.778
| 47> H  -23.458   24.612   45.440
| 48> O  -22.586   26.394   46.375
| 49> C  -22.767   24.025   47.398
| 50> C  -23.524   22.693   47.345
| 51> C  -22.963   22.064   46.047
| 52> C  -21.487   22.536   46.038
| 53> O  -21.407   23.684   46.967
| 54> H  -22.687   24.460   48.396
| 55> H  -23.267   22.078   48.215
| 56> O  -25.067   22.870   47.309
| 57> H  -23.052   20.973   46.031
| 58> H  -23.499   22.458   45.176
| 59> H  -21.155   22.855   45.044
| 60> H  -20.802   21.770   46.412
| 61> H  -25.349   23.481   46.446
| 62> *
| 63>
| 64>                          ****END OF INPUT****
 Total Charge           Charge          ....    0
 Multiplicity           Mult            ....    1
 Number of Electrons    NEL             ....  102
FINAL SINGLE POINT ENERGY      -652.818867665073
FINAL SINGLE POINT ENERGY      -652.843622460403
FINAL SINGLE POINT ENERGY      -652.852550614906
FINAL SINGLE POINT ENERGY      -652.854170415386
FINAL SINGLE POINT ENERGY      -652.854488469116
FINAL SINGLE POINT ENERGY      -652.854561443922
FINAL SINGLE POINT ENERGY      -652.854567753913
FINAL SINGLE POINT ENERGY      -652.854568401179
                    ***********************HURRAY********************

CARTESIAN COORDINATES (ANGSTROEM)
---------------------------------
  C    -20.899894   26.270103   46.231981
  C    -20.449724   27.708432   45.972410
  C    -20.470610   28.308746   47.397803
  C    -20.026782   27.123660   48.282159
  O    -20.225556   25.902846   47.459612
  H    -20.599764   25.525065   45.491854
  H    -19.432506   27.696155   45.564390
  H    -21.109577   28.228203   45.274800
  H    -19.810771   29.175912   47.499895
  H    -21.489601   28.617201   47.648256
  H    -20.612826   27.032786   49.200697
  H    -18.963251   27.159428   48.537770
  C    -23.150150   25.107526   46.437899
  H    -24.121076   25.463649   46.794274
  H    -23.280459   24.729865   45.408671
  O    -22.336604   26.309395   46.367724
  C    -22.694891   23.958445   47.340532
  C    -23.628698   22.735477   47.289901
  C    -23.104271   21.985003   46.027222
  C    -21.585052   22.253617   46.077689
  O    -21.384410   23.418111   46.981921
  H    -22.576791   24.339169   48.358360
  H    -23.473725   22.130349   48.185350
  O    -25.046961   23.028684   47.286435
  H    -23.350766   20.920158   46.048652
  H    -23.559879   22.419236   45.127552
  H    -21.160724   22.484805   45.095317
  H    -21.029681   21.416461   46.510407
  H    -25.332000   23.340513   46.403469

 Multiplicity           Mult            ....    1
 Number of Electrons    NEL             ....  102
 Basis Dimension        Dim             ....  149

ORBITAL ENERGIES
----------------

  NO   OCC          E(Eh)            E(eV)
   0   2.0000     -19.150531      -521.1125
   1   2.0000     -19.135821      -520.7122
   2   2.0000     -19.135541      -520.7045
   3   2.0000     -19.124874      -520.4143
   4   2.0000     -10.267331      -279.3883
   5   2.0000     -10.245503      -278.7943
   6   2.0000     -10.229262      -278.3524
   7   2.0000     -10.228960      -278.3441
   8   2.0000     -10.227285      -278.2986
   9   2.0000     -10.213345      -277.9192
  10   2.0000     -10.195724      -277.4398
  11   2.0000     -10.176033      -276.9039
  12   2.0000     -10.175573      -276.8914
  13   2.0000      -1.042480       -28.3673
  14   2.0000      -1.031881       -28.0789
  15   2.0000      -1.012937       -27.5634
  16   2.0000      -0.983113       -26.7519
  17   2.0000      -0.783708       -21.3258
  18   2.0000      -0.778891       -21.1947
  19   2.0000      -0.761494       -20.7213
  20   2.0000      -0.725397       -19.7391
  21   2.0000      -0.676476       -18.4079
  22   2.0000      -0.611560       -16.6414
  23   2.0000      -0.594636       -16.1809
  24   2.0000      -0.587567       -15.9885
  25   2.0000      -0.564252       -15.3541
  26   2.0000      -0.525114       -14.2891
  27   2.0000      -0.509142       -13.8545
  28   2.0000      -0.493730       -13.4351
  29   2.0000      -0.476697       -12.9716
  30   2.0000      -0.461166       -12.5490
  31   2.0000      -0.452884       -12.3236
  32   2.0000      -0.443494       -12.0681
  33   2.0000      -0.428856       -11.6698
  34   2.0000      -0.423152       -11.5146
  35   2.0000      -0.413389       -11.2489
  36   2.0000      -0.405023       -11.0212
  37   2.0000      -0.389191       -10.5904
  38   2.0000      -0.380851       -10.3635
  39   2.0000      -0.362073        -9.8525
  40   2.0000      -0.354469        -9.6456
  41   2.0000      -0.347022        -9.4430
  42   2.0000      -0.337890        -9.1945
  43   2.0000      -0.328782        -8.9466
  44   2.0000      -0.319845        -8.7034
  45   2.0000      -0.310510        -8.4494
  46   2.0000      -0.283127        -7.7043
  47   2.0000      -0.270526        -7.3614
  48   2.0000      -0.258713        -7.0399
  49   2.0000      -0.249397        -6.7864
  50   2.0000      -0.229846        -6.2544
  51   0.0000       0.050608         1.3771
  52   0.0000       0.073688         2.0052
  53   0.0000       0.092123         2.5068
  54   0.0000       0.098784         2.6880
  55   0.0000       0.109429         2.9777

MULLIKEN ATOMIC CHARGES
-----------------------
   0 C :    0.305193
   1 C :   -0.259803
   2 C :   -0.295828
   3 C :   -0.006549
   4 O :   -0.489883
   5 H :    0.142140
   6 H :    0.142293
   7 H :    0.150896
   8 H :    0.135019
   9 H :    0.158918
  10 H :    0.141038
  11 H :    0.139129
  12 C :   -0.000094
  13 H :    0.155333
  14 H :    0.108718
  15 O :   -0.536635
  16 C :    0.083303
  17 C :    0.082100
  18 C :   -0.320771
  19 C :   -0.017404
  20 O :   -0.492223
  21 H :    0.166231
  22 H :    0.170709
  23 O :   -0.600590
  24 H :    0.158119
  25 H :    0.129815
  26 H :    0.140398
  27 H :    0.153167
  28 H :    0.357263
Sum of atomic charges:    0.0000000

LOEWDIN ATOMIC CHARGES
----------------------
   0 C :    0.178243
   1 C :   -0.215803
   2 C :   -0.216493
   3 C :   -0.031754
   4 O :   -0.312154
   5 H :    0.098533
   6 H :    0.112378
   7 H :    0.120918
   8 H :    0.110329
   9 H :    0.117455
  10 H :    0.101886
  11 H :    0.100669
  12 C :   -0.044420
  13 H :    0.118155
  14 H :    0.081234
  15 O :   -0.329310
  16 C :    0.008746
  17 C :    0.036403
  18 C :   -0.241848
  19 C :   -0.034132
  20 O :   -0.305032
  21 H :    0.120678
  22 H :    0.120769
  23 O :   -0.407539
  24 H :    0.122594
  25 H :    0.102505
  26 H :    0.100425
  27 H :    0.107670
  28 H :    0.278894

  Mayer bond orders larger than 0.100000
B(  0-C ,  1-C ) :   0.9456 B(  0-C ,  4-O ) :   0.9083 B(  0-C ,  5-H ) :   0.9218
B(  0-C , 15-O ) :   0.8405 B(  1-C ,  2-C ) :   0.9573 B(  1-C ,  6-H ) :   0.9414
B(  1-C ,  7-H ) :   0.9371 B(  2-C ,  3-C ) :   0.9527 B(  2-C ,  8-H ) :   0.9460
B(  2-C ,  9-H ) :   0.9448 B(  3-C ,  4-O ) :   0.8487 B(  3-C , 10-H ) :   0.9357
B(  3-C , 11-H ) :   0.9402 B( 12-C , 13-H ) :   0.9216 B( 12-C , 14-H ) :   0.9238
B( 12-C , 15-O ) :   0.8647 B( 12-C , 16-C ) :   0.8943 B( 16-C , 17-C ) :   0.8677
B( 16-C , 20-O ) :   0.8569 B( 16-C , 21-H ) :   0.9269 B( 17-C , 18-C ) :   0.9240
B( 17-C , 22-H ) :   0.9327 B( 17-C , 23-O ) :   0.8981 B( 18-C , 19-C ) :   0.9374
B( 18-C , 24-H ) :   0.9414 B( 18-C , 25-H ) :   0.9401 B( 19-C , 20-O ) :   0.8529
B( 19-C , 26-H ) :   0.9315 B( 19-C , 27-H ) :   0.9370 B( 23-O , 28-H ) :   0.7980

FINAL SINGLE POINT ENERGY      -652.854568182498

DIPOLE MOMENT
-------------
                                X             Y             Z
Electronic contribution:     -1.26952      -1.93616       1.51093
Nuclear contribution   :      1.14212       1.84635      -2.41222
                        -----------------------------------------
Total Dipole Moment    :     -0.12740      -0.08981      -0.90129
                        -----------------------------------------
Magnitude (a.u.)       :      0.91467
Magnitude (Debye)      :      2.32491

Rotational constants in cm-1:     0.057279     0.014259     0.013254
Rotational constants in MHz :  1717.192800   427.470280   397.338069

                             ****ORCA TERMINATED NORMALLY****
TOTAL RUN TIME: 0 days 1 hours 3 minutes 8 seconds 736 msec
