                         Program Version 4.2.1 -  RELEASE  -
|  1> # Test redundant internal optimization
|  2> #
|  3> ! RKS B3LYP  Opt TightSCF SmallPrint
|  4>
|  5> %basis
|  6>         Basis "6-31G"
|  7> end
|  8>
|  9> %geom
| 10> Constraints
| 11> { D 4  0  19  14  60.0   C } # D for Dihedral angle
| 12> { D 0  19  14  12  120.0   C } # D for Dihedral angle
| 13> { D 0  4  3  2   C } # D for Dihedral angle
| 14> { D 4  3  2  1   C } # D for Dihedral angle
| 15> { D 3  2  1  0   C } # D for Dihedral angle
| 16> { D 2  1  0  4   C } # D for Dihedral angle
| 17> { D 1  0  4  3   C } # D for Dihedral angle
| 18> { D 14  15  16  17   C } # D for Dihedral angle
| 19> { D 15  16  17  12   C } # D for Dihedral angle
| 20> { D 16  17  12  14   C } # D for Dihedral angle
| 21> { D 17  12  14  15   C } # D for Dihedral angle
| 22> { D 12  14  15  16   C } # D for Dihedral angle
| 23> end
| 24> end
| 25>
| 26>
| 27> #%pal
| 28> #nprocs 8
| 29> #end
| 30>
| 31> * xyz 0 1
| 32> C  -21.048   26.222   46.251
| 33> C  -20.361   27.558   45.944
| 34> C  -20.329   28.222   47.341
| 35> C  -20.110   27.022   48.296
| 36> O  -20.473   25.807   47.535
| 37> H  -20.833   25.428   45.533
| 38> H  -19.344   27.382   45.576
| 39> H  -20.898   28.157   45.201
| 40> H  -19.543   28.978   47.434
| 41> H  -21.289   28.710   47.548
| 42> H  -20.733   27.082   49.195
| 43> H  -19.064   26.913   48.597
| 44> C  -23.695   28.467   46.645
| 45> H  -23.773   29.362   47.281
| 46> C  -22.882   27.363   47.331
| 47> C  -23.923   26.768   48.308
| 48> C  -25.251   26.879   47.519
| 49> O  -25.019   27.867   46.442
| 50> H  -23.323   28.758   45.661
| 51> O  -22.472   26.381   46.366
| 52> H  -21.989   27.741   47.840
| 53> H  -23.694   25.737   48.597
| 54> H  -23.967   27.369   49.225
| 55> H  -26.084   27.219   48.143
| 56> H  -25.531   25.937   47.037
| 57> *
| 58>
| 59>                          ****END OF INPUT****
 Total Charge           Charge          ....    0
 Multiplicity           Mult            ....    1
 Number of Electrons    NEL             ....   86
FINAL SINGLE POINT ENERGY      -538.381325107027
FINAL SINGLE POINT ENERGY      -538.421942882511
FINAL SINGLE POINT ENERGY      -538.425288580358
FINAL SINGLE POINT ENERGY      -538.425919281135
FINAL SINGLE POINT ENERGY      -538.426013287151
FINAL SINGLE POINT ENERGY      -538.426054117360
FINAL SINGLE POINT ENERGY      -538.426057016178
                    ***********************HURRAY********************

CARTESIAN COORDINATES (ANGSTROEM)
---------------------------------
  C    -21.103769   26.335814   46.418434
  C    -20.250500   27.515594   45.926777
  C    -19.896964   28.239372   47.259767
  C    -19.748512   27.057977   48.253426
  O    -20.427571   25.899559   47.623147
  H    -21.069690   25.485659   45.735091
  H    -19.347053   27.118996   45.452401
  H    -20.778490   28.148335   45.208889
  H    -18.971283   28.818733   47.182978
  H    -20.689375   28.931942   47.555619
  H    -20.204513   27.251777   49.229545
  H    -18.703048   26.772215   48.401680
  C    -23.940114   28.517421   46.738686
  H    -24.187810   29.369315   47.390592
  C    -23.108283   27.483319   47.497978
  C    -24.193598   26.739348   48.302531
  C    -25.407089   26.736552   47.345067
  O    -25.143208   27.790793   46.338936
  H    -23.458379   28.878599   45.828470
  O    -22.522770   26.528834   46.557148
  H    -22.353197   27.925074   48.150324
  H    -23.853808   25.737458   48.569915
  H    -24.416443   27.293932   49.221872
  H    -26.350073   26.958284   47.856429
  H    -25.502459   25.794098   46.800296

 Multiplicity           Mult            ....    1
 Number of Electrons    NEL             ....   86
 Basis Dimension        Dim             ....  127

ORBITAL ENERGIES
----------------

  NO   OCC          E(Eh)            E(eV)
   0   2.0000     -19.144444      -520.9468
   1   2.0000     -19.140960      -520.8520
   2   2.0000     -19.125826      -520.4402
   3   2.0000     -10.279464      -279.7184
   4   2.0000     -10.241113      -278.6749
   5   2.0000     -10.233378      -278.4644
   6   2.0000     -10.221995      -278.1546
   7   2.0000     -10.216224      -277.9976
   8   2.0000     -10.197079      -277.4766
   9   2.0000     -10.192202      -277.3439
  10   2.0000     -10.181025      -277.0398
  11   2.0000      -1.053151       -28.6577
  12   2.0000      -1.013710       -27.5844
  13   2.0000      -0.990748       -26.9596
  14   2.0000      -0.792102       -21.5542
  15   2.0000      -0.784955       -21.3597
  16   2.0000      -0.739798       -20.1309
  17   2.0000      -0.723855       -19.6971
  18   2.0000      -0.620637       -16.8884
  19   2.0000      -0.607350       -16.5268
  20   2.0000      -0.595903       -16.2153
  21   2.0000      -0.567012       -15.4292
  22   2.0000      -0.524672       -14.2771
  23   2.0000      -0.504724       -13.7342
  24   2.0000      -0.485406       -13.2086
  25   2.0000      -0.481610       -13.1053
  26   2.0000      -0.453119       -12.3300
  27   2.0000      -0.444264       -12.0890
  28   2.0000      -0.428733       -11.6664
  29   2.0000      -0.418962       -11.4005
  30   2.0000      -0.413414       -11.2496
  31   2.0000      -0.387620       -10.5477
  32   2.0000      -0.371761       -10.1161
  33   2.0000      -0.369188       -10.0461
  34   2.0000      -0.363568        -9.8932
  35   2.0000      -0.361436        -9.8352
  36   2.0000      -0.343366        -9.3435
  37   2.0000      -0.318104        -8.6560
  38   2.0000      -0.308182        -8.3861
  39   2.0000      -0.297416        -8.0931
  40   2.0000      -0.266155        -7.2425
  41   2.0000      -0.253499        -6.8980
  42   2.0000      -0.230676        -6.2770
  43   0.0000       0.065028         1.7695
  44   0.0000       0.089589         2.4378
  45   0.0000       0.093314         2.5392
  46   0.0000       0.107490         2.9250
  47   0.0000       0.114437         3.1140

MULLIKEN ATOMIC CHARGES
-----------------------
   0 C :    0.298424
   1 C :   -0.272232
   2 C :   -0.321785
   3 C :   -0.013102
   4 O :   -0.506180
   5 H :    0.167056
   6 H :    0.155321
   7 H :    0.152457
   8 H :    0.147749
   9 H :    0.148998
  10 H :    0.143496
  11 H :    0.149676
  12 C :    0.015000
  13 H :    0.119261
  14 C :    0.053851
  15 C :   -0.280754
  16 C :    0.006490
  17 O :   -0.520290
  18 H :    0.151839
  19 O :   -0.514311
  20 H :    0.128998
  21 H :    0.167609
  22 H :    0.135641
  23 H :    0.131153
  24 H :    0.155634
Sum of atomic charges:   -0.0000000

LOEWDIN ATOMIC CHARGES
----------------------
   0 C :    0.175806
   1 C :   -0.228681
   2 C :   -0.226410
   3 C :   -0.036016
   4 O :   -0.323384
   5 H :    0.114126
   6 H :    0.121522
   7 H :    0.119837
   8 H :    0.116858
   9 H :    0.107782
  10 H :    0.100684
  11 H :    0.106162
  12 C :   -0.039667
  13 H :    0.088805
  14 C :    0.035059
  15 C :   -0.225460
  16 C :   -0.026100
  17 O :   -0.329407
  18 H :    0.113924
  19 O :   -0.312833
  20 H :    0.100731
  21 H :    0.130922
  22 H :    0.109153
  23 H :    0.096841
  24 H :    0.109746

  Mayer bond orders larger than 0.100000
B(  0-C ,  1-C ) :   0.9142 B(  0-C ,  4-O ) :   0.8957 B(  0-C ,  5-H ) :   0.9360
B(  0-C , 19-O ) :   0.9119 B(  1-C ,  2-C ) :   0.9544 B(  1-C ,  6-H ) :   0.9350
B(  1-C ,  7-H ) :   0.9362 B(  2-C ,  3-C ) :   0.9459 B(  2-C ,  8-H ) :   0.9445
B(  2-C ,  9-H ) :   0.9400 B(  3-C ,  4-O ) :   0.8475 B(  3-C , 10-H ) :   0.9323
B(  3-C , 11-H ) :   0.9380 B( 12-C , 13-H ) :   0.9119 B( 12-C , 14-C ) :   0.9250
B( 12-C , 17-O ) :   0.8775 B( 12-C , 18-H ) :   0.9333 B( 14-C , 15-C ) :   0.9477
B( 14-C , 19-O ) :   0.8178 B( 14-C , 20-H ) :   0.9118 B( 15-C , 16-C ) :   0.9470
B( 15-C , 21-H ) :   0.9377 B( 15-C , 22-H ) :   0.9399 B( 16-C , 17-O ) :   0.8507
B( 16-C , 23-H ) :   0.9344 B( 16-C , 24-H ) :   0.9365

FINAL SINGLE POINT ENERGY      -538.426056330737

DIPOLE MOMENT
-------------
                                X             Y             Z
Electronic contribution:     -1.85213      -3.08710      -2.09266
Nuclear contribution   :      2.79847       3.94119       2.80572
                        -----------------------------------------
Total Dipole Moment    :      0.94634       0.85409       0.71306
                        -----------------------------------------
Magnitude (a.u.)       :      1.46065
Magnitude (Debye)      :      3.71267

Rotational constants in cm-1:     0.079309     0.021915     0.020699
Rotational constants in MHz :  2377.632787   656.997561   620.551846

                             ****ORCA TERMINATED NORMALLY****
TOTAL RUN TIME: 0 days 0 hours 8 minutes 20 seconds 780 msec
