                         Program Version 4.2.0 -  RELEASE  -
|  1> # Test redundant internal optimization
|  2> #
|  3> ! RKS B3LYP  Opt TightSCF SmallPrint
|  4>
|  5> %basis
|  6>         Basis "6-31G"
|  7> end
|  8>
|  9> %geom
| 10> Constraints
| 11> { D 4  0  15  12  270.0   C } # D for Dihedral angle
| 12> { D 0  15  12  16  300.0   C } # D for Dihedral angle
| 13> { D 0  4  3  2   C } # D for Dihedral angle
| 14> { D 4  3  2  1   C } # D for Dihedral angle
| 15> { D 3  2  1  0   C } # D for Dihedral angle
| 16> { D 2  1  0  4   C } # D for Dihedral angle
| 17> { D 1  0  4  3   C } # D for Dihedral angle
| 18> { D 16  20  19  18   C } # D for Dihedral angle
| 19> { D 20  19  18  17   C } # D for Dihedral angle
| 20> { D 19  18  17  16   C } # D for Dihedral angle
| 21> { D 18  17  16  20   C } # D for Dihedral angle
| 22> { D 17  16  20  19   C } # D for Dihedral angle
| 23> { D 15  12  16  20   C } # D for Dihedral angle
| 24> end
| 25> end
| 26>
| 27>
| 28> #%pal
| 29> #nprocs 8
| 30> #end
| 31>
| 32> * xyz 0 1
| 33> C  -21.048   26.222   46.251
| 34> C  -20.361   27.558   45.944
| 35> C  -20.329   28.222   47.341
| 36> C  -20.110   27.022   48.296
| 37> O  -20.473   25.807   47.535
| 38> H  -20.833   25.428   45.533
| 39> H  -19.344   27.382   45.576
| 40> H  -20.898   28.157   45.201
| 41> H  -19.543   28.978   47.434
| 42> H  -21.289   28.710   47.548
| 43> H  -20.733   27.082   49.195
| 44> H  -19.064   26.913   48.597
| 45> C  -23.420   25.119   46.072
| 46> H  -23.140   24.328   46.779
| 47> H  -24.491   25.323   46.192
| 48> O  -22.586   26.394   46.375
| 49> C  -23.199   24.585   44.630
| 50> C  -24.121   23.399   44.328
| 51> C  -25.460   24.111   44.025
| 52> C  -25.012   25.414   43.316
| 53> O  -23.583   25.601   43.643
| 54> H  -22.136   24.381   44.483
| 55> H  -23.762   22.858   43.445
| 56> O  -24.227   22.394   45.507
| 57> H  -26.131   23.508   43.404
| 58> H  -25.985   24.341   44.960
| 59> H  -25.575   26.291   43.656
| 60> H  -25.088   25.344   42.227
| 61> H  -24.586   22.912   46.403
| 62> *
| 63>
| 64>                          ****END OF INPUT****
 Total Charge           Charge          ....    0
 Multiplicity           Mult            ....    1
 Number of Electrons    NEL             ....  102
FINAL SINGLE POINT ENERGY      -652.828090529817
FINAL SINGLE POINT ENERGY      -652.851912108532
FINAL SINGLE POINT ENERGY      -652.857131709083
FINAL SINGLE POINT ENERGY      -652.858078330867
FINAL SINGLE POINT ENERGY      -652.858248752581
FINAL SINGLE POINT ENERGY      -652.858272970840
FINAL SINGLE POINT ENERGY      -652.858275952587
                    ***********************HURRAY********************

CARTESIAN COORDINATES (ANGSTROEM)
---------------------------------
  C    -21.009524   26.177043   46.205491
  C    -20.425991   27.565464   45.939638
  C    -20.441857   28.191397   47.353506
  C    -20.133746   26.987172   48.271882
  O    -20.411050   25.774674   47.463016
  H    -20.744653   25.408789   45.478489
  H    -19.400088   27.461889   45.567600
  H    -21.017994   28.120782   45.210092
  H    -19.710700   28.997828   47.466343
  H    -21.437385   28.592374   47.564731
  H    -20.757023   26.963663   49.169619
  H    -19.080186   26.934607   48.563413
  C    -23.290164   25.183347   46.073401
  H    -23.071623   24.395131   46.808880
  H    -24.299668   25.564914   46.252206
  O    -22.438316   26.335729   46.329115
  C    -23.175070   24.590833   44.665677
  C    -24.144330   23.419754   44.423586
  C    -25.470519   24.165728   44.078872
  C    -24.969024   25.405900   43.306540
  O    -23.526610   25.557735   43.628972
  H    -22.144298   24.290606   44.461562
  H    -23.801206   22.844831   43.560472
  O    -24.240248   22.444896   45.487027
  H    -26.151426   23.543730   43.491953
  H    -25.985509   24.449321   45.006180
  H    -25.494110   26.324406   43.586720
  H    -25.040597   25.275853   42.222242
  H    -24.714085   22.815604   46.258776

 Multiplicity           Mult            ....    1
 Number of Electrons    NEL             ....  102
 Basis Dimension        Dim             ....  149

ORBITAL ENERGIES
----------------

  NO   OCC          E(Eh)            E(eV)
   0   2.0000     -19.152197      -521.1578
   1   2.0000     -19.140370      -520.8359
   2   2.0000     -19.138909      -520.7962
   3   2.0000     -19.131275      -520.5884
   4   2.0000     -10.271617      -279.5049
   5   2.0000     -10.248721      -278.8819
   6   2.0000     -10.234680      -278.4998
   7   2.0000     -10.233506      -278.4679
   8   2.0000     -10.230459      -278.3849
   9   2.0000     -10.218193      -278.0512
  10   2.0000     -10.198099      -277.5044
  11   2.0000     -10.178094      -276.9600
  12   2.0000     -10.176818      -276.9253
  13   2.0000      -1.047519       -28.5044
  14   2.0000      -1.035713       -28.1832
  15   2.0000      -1.018189       -27.7063
  16   2.0000      -0.987409       -26.8688
  17   2.0000      -0.786469       -21.4009
  18   2.0000      -0.780315       -21.2335
  19   2.0000      -0.765202       -20.8222
  20   2.0000      -0.729775       -19.8582
  21   2.0000      -0.679483       -18.4897
  22   2.0000      -0.614133       -16.7114
  23   2.0000      -0.603713       -16.4279
  24   2.0000      -0.590547       -16.0696
  25   2.0000      -0.563429       -15.3317
  26   2.0000      -0.534788       -14.5523
  27   2.0000      -0.512368       -13.9423
  28   2.0000      -0.495443       -13.4817
  29   2.0000      -0.484651       -13.1880
  30   2.0000      -0.467231       -12.7140
  31   2.0000      -0.452133       -12.3032
  32   2.0000      -0.441195       -12.0055
  33   2.0000      -0.433215       -11.7884
  34   2.0000      -0.430200       -11.7063
  35   2.0000      -0.423258       -11.5174
  36   2.0000      -0.405561       -11.0359
  37   2.0000      -0.395173       -10.7532
  38   2.0000      -0.380791       -10.3618
  39   2.0000      -0.366980        -9.9860
  40   2.0000      -0.356568        -9.7027
  41   2.0000      -0.349098        -9.4994
  42   2.0000      -0.341568        -9.2945
  43   2.0000      -0.334742        -9.1088
  44   2.0000      -0.319900        -8.7049
  45   2.0000      -0.314185        -8.5494
  46   2.0000      -0.296185        -8.0596
  47   2.0000      -0.274594        -7.4721
  48   2.0000      -0.268389        -7.3032
  49   2.0000      -0.245414        -6.6781
  50   2.0000      -0.236965        -6.4482
  51   0.0000       0.050769         1.3815
  52   0.0000       0.076702         2.0872
  53   0.0000       0.085619         2.3298
  54   0.0000       0.094379         2.5682
  55   0.0000       0.103675         2.8211

MULLIKEN ATOMIC CHARGES
-----------------------
   0 C :    0.278968
   1 C :   -0.254558
   2 C :   -0.299059
   3 C :   -0.000296
   4 O :   -0.512757
   5 H :    0.146222
   6 H :    0.141298
   7 H :    0.162705
   8 H :    0.137825
   9 H :    0.161919
  10 H :    0.144542
  11 H :    0.138966
  12 C :   -0.009569
  13 H :    0.141827
  14 H :    0.142263
  15 O :   -0.513275
  16 C :    0.067538
  17 C :    0.087557
  18 C :   -0.327969
  19 C :   -0.011555
  20 O :   -0.509459
  21 H :    0.160649
  22 H :    0.168871
  23 O :   -0.598298
  24 H :    0.160575
  25 H :    0.136609
  26 H :    0.147120
  27 H :    0.153015
  28 H :    0.358325
Sum of atomic charges:   -0.0000000

LOEWDIN ATOMIC CHARGES
----------------------
   0 C :    0.172460
   1 C :   -0.214353
   2 C :   -0.216583
   3 C :   -0.027545
   4 O :   -0.330214
   5 H :    0.098684
   6 H :    0.111997
   7 H :    0.126884
   8 H :    0.111835
   9 H :    0.118922
  10 H :    0.104036
  11 H :    0.100727
  12 C :   -0.050215
  13 H :    0.102501
  14 H :    0.108844
  15 O :   -0.315957
  16 C :    0.005368
  17 C :    0.037007
  18 C :   -0.242373
  19 C :   -0.029856
  20 O :   -0.320399
  21 H :    0.112958
  22 H :    0.119800
  23 O :   -0.404881
  24 H :    0.123938
  25 H :    0.105317
  26 H :    0.104616
  27 H :    0.107392
  28 H :    0.279090

  Mayer bond orders larger than 0.100000
B(  0-C ,  1-C ) :   0.9494 B(  0-C ,  4-O ) :   0.9052 B(  0-C ,  5-H ) :   0.9126
B(  0-C , 15-O ) :   0.8587 B(  1-C ,  2-C ) :   0.9572 B(  1-C ,  6-H ) :   0.9407
B(  1-C ,  7-H ) :   0.9351 B(  2-C ,  3-C ) :   0.9546 B(  2-C ,  8-H ) :   0.9456
B(  2-C ,  9-H ) :   0.9443 B(  3-C ,  4-O ) :   0.8414 B(  3-C , 10-H ) :   0.9359
B(  3-C , 11-H ) :   0.9404 B( 12-C , 13-H ) :   0.9025 B( 12-C , 14-H ) :   0.9401
B( 12-C , 15-O ) :   0.8628 B( 12-C , 16-C ) :   0.8884 B( 16-C , 17-C ) :   0.8690
B( 16-C , 20-O ) :   0.8667 B( 16-C , 21-H ) :   0.9233 B( 17-C , 18-C ) :   0.9207
B( 17-C , 22-H ) :   0.9327 B( 17-C , 23-O ) :   0.9030 B( 18-C , 19-C ) :   0.9383
B( 18-C , 24-H ) :   0.9416 B( 18-C , 25-H ) :   0.9412 B( 19-C , 20-O ) :   0.8465
B( 19-C , 26-H ) :   0.9316 B( 19-C , 27-H ) :   0.9372 B( 23-O , 28-H ) :   0.7959

FINAL SINGLE POINT ENERGY      -652.858276549968

DIPOLE MOMENT
-------------
                                X             Y             Z
Electronic contribution:      0.35816      -3.27433      -0.44713
Nuclear contribution   :     -1.12528       3.70286       0.35179
                        -----------------------------------------
Total Dipole Moment    :     -0.76712       0.42853      -0.09535
                        -----------------------------------------
Magnitude (a.u.)       :      0.88386
Magnitude (Debye)      :      2.24660

Rotational constants in cm-1:     0.058929     0.012684     0.011292
Rotational constants in MHz :  1766.640342   380.242517   338.527848

                             ****ORCA TERMINATED NORMALLY****
TOTAL RUN TIME: 0 days 0 hours 22 minutes 37 seconds 179 msec
