                         Program Version 4.2.0 -  RELEASE  -
|  1> # Test redundant internal optimization
|  2> #
|  3> ! RKS B3LYP  Opt TightSCF SmallPrint
|  4>
|  5> %basis
|  6>         Basis "6-31G"
|  7> end
|  8>
|  9> %geom
| 10> Constraints
| 11> { D 4  0  15  12  150.0   C } # D for Dihedral angle
| 12> { D 0  15  12  16  240.0   C } # D for Dihedral angle
| 13> { D 0  4  3  2   C } # D for Dihedral angle
| 14> { D 4  3  2  1   C } # D for Dihedral angle
| 15> { D 3  2  1  0   C } # D for Dihedral angle
| 16> { D 2  1  0  4   C } # D for Dihedral angle
| 17> { D 1  0  4  3   C } # D for Dihedral angle
| 18> { D 16  20  19  18   C } # D for Dihedral angle
| 19> { D 20  19  18  17   C } # D for Dihedral angle
| 20> { D 19  18  17  16   C } # D for Dihedral angle
| 21> { D 18  17  16  20   C } # D for Dihedral angle
| 22> { D 17  16  20  19   C } # D for Dihedral angle
| 23> { D 15  12  16  20   C } # D for Dihedral angle
| 24> end
| 25> end
| 26>
| 27>
| 28> #%pal
| 29> #nprocs 8
| 30> #end
| 31>
| 32> * xyz 0 1
| 33> C  -21.048   26.222   46.251
| 34> C  -20.361   27.558   45.944
| 35> C  -20.329   28.222   47.341
| 36> C  -20.110   27.022   48.296
| 37> O  -20.473   25.807   47.535
| 38> H  -20.833   25.428   45.533
| 39> H  -19.344   27.382   45.576
| 40> H  -20.898   28.157   45.201
| 41> H  -19.543   28.978   47.434
| 42> H  -21.289   28.710   47.548
| 43> H  -20.733   27.082   49.195
| 44> H  -19.064   26.913   48.597
| 45> C  -23.210   27.459   45.431
| 46> H  -22.418   27.907   44.818
| 47> H  -23.942   26.994   44.759
| 48> O  -22.586   26.394   46.375
| 49> C  -23.933   28.596   46.204
| 50> C  -24.997   28.035   47.154
| 51> C  -24.134   27.563   48.349
| 52> C  -23.001   28.619   48.403
| 53> O  -22.992   29.294   47.087
| 54> H  -24.307   29.332   45.490
| 55> H  -25.682   28.832   47.464
| 56> O  -25.833   26.887   46.525
| 57> H  -24.698   27.508   49.285
| 58> H  -23.723   26.567   48.146
| 59> H  -22.018   28.171   48.584
| 60> H  -23.184   29.388   49.159
| 61> H  -25.167   26.078   46.208
| 62> *
| 63>
| 64>                          ****END OF INPUT****
 Total Charge           Charge          ....    0
 Multiplicity           Mult            ....    1
 Number of Electrons    NEL             ....  102
FINAL SINGLE POINT ENERGY      -652.792315541995
FINAL SINGLE POINT ENERGY      -652.833141608026
FINAL SINGLE POINT ENERGY      -652.850134269949
FINAL SINGLE POINT ENERGY      -652.853874857734
FINAL SINGLE POINT ENERGY      -652.854605232672
FINAL SINGLE POINT ENERGY      -652.854716435735
FINAL SINGLE POINT ENERGY      -652.854739418473
FINAL SINGLE POINT ENERGY      -652.854742842088
                    ***********************HURRAY********************

CARTESIAN COORDINATES (ANGSTROEM)
---------------------------------
  C    -21.020328   26.311089   46.141575
  C    -20.139770   27.530304   45.862099
  C    -20.035668   28.184280   47.266125
  C    -20.016017   26.960615   48.207465
  O    -20.546482   25.826802   47.404802
  H    -20.854964   25.493225   45.433079
  H    -19.165687   27.159206   45.525560
  H    -20.517485   28.218028   45.102205
  H    -19.133363   28.794937   47.369815
  H    -20.905978   28.822707   47.429946
  H    -20.635923   27.078526   49.100362
  H    -19.004648   26.677147   48.512293
  C    -23.177096   27.498768   45.437882
  H    -22.483987   28.028944   44.776286
  H    -23.910144   26.982382   44.805448
  O    -22.475218   26.488276   46.217808
  C    -23.944648   28.527572   46.269602
  C    -25.080708   27.937109   47.124482
  C    -24.338387   27.601597   48.455538
  C    -23.308300   28.740499   48.569581
  O    -23.182145   29.341516   47.207712
  H    -24.354669   29.236862   45.537735
  H    -25.858337   28.686998   47.283738
  O    -25.761586   26.812026   46.523946
  H    -25.018970   27.556831   49.310281
  H    -23.832491   26.637967   48.341525
  H    -22.327448   28.397583   48.899576
  H    -23.643838   29.547278   49.228726
  H    -25.175716   26.025927   46.546805

 Multiplicity           Mult            ....    1
 Number of Electrons    NEL             ....  102
 Basis Dimension        Dim             ....  149

ORBITAL ENERGIES
----------------

  NO   OCC          E(Eh)            E(eV)
   0   2.0000     -19.146328      -520.9981
   1   2.0000     -19.145258      -520.9690
   2   2.0000     -19.144166      -520.9392
   3   2.0000     -19.139923      -520.8238
   4   2.0000     -10.283729      -279.8345
   5   2.0000     -10.238198      -278.5955
   6   2.0000     -10.234435      -278.4931
   7   2.0000     -10.233544      -278.4689
   8   2.0000     -10.228757      -278.3386
   9   2.0000     -10.228194      -278.3233
  10   2.0000     -10.192400      -277.3493
  11   2.0000     -10.183985      -277.1203
  12   2.0000     -10.182509      -277.0801
  13   2.0000      -1.052975       -28.6529
  14   2.0000      -1.031082       -28.0572
  15   2.0000      -1.012906       -27.5626
  16   2.0000      -0.995256       -27.0823
  17   2.0000      -0.788174       -21.4473
  18   2.0000      -0.776484       -21.1292
  19   2.0000      -0.769825       -20.9480
  20   2.0000      -0.737302       -20.0630
  21   2.0000      -0.683079       -18.5875
  22   2.0000      -0.607553       -16.5324
  23   2.0000      -0.603518       -16.4225
  24   2.0000      -0.598597       -16.2887
  25   2.0000      -0.564548       -15.3621
  26   2.0000      -0.529490       -14.4082
  27   2.0000      -0.509254       -13.8575
  28   2.0000      -0.497574       -13.5397
  29   2.0000      -0.496478       -13.5099
  30   2.0000      -0.468677       -12.7533
  31   2.0000      -0.462559       -12.5869
  32   2.0000      -0.445773       -12.1301
  33   2.0000      -0.438413       -11.9298
  34   2.0000      -0.426194       -11.5973
  35   2.0000      -0.412800       -11.2329
  36   2.0000      -0.409535       -11.1440
  37   2.0000      -0.400377       -10.8948
  38   2.0000      -0.380645       -10.3579
  39   2.0000      -0.371169       -10.1000
  40   2.0000      -0.357096        -9.7171
  41   2.0000      -0.355446        -9.6722
  42   2.0000      -0.348558        -9.4848
  43   2.0000      -0.329939        -8.9781
  44   2.0000      -0.317961        -8.6522
  45   2.0000      -0.311684        -8.4813
  46   2.0000      -0.298774        -8.1301
  47   2.0000      -0.273701        -7.4478
  48   2.0000      -0.263663        -7.1746
  49   2.0000      -0.261350        -7.1117
  50   2.0000      -0.240181        -6.5356
  51   0.0000       0.066339         1.8052
  52   0.0000       0.077907         2.1199
  53   0.0000       0.090710         2.4683
  54   0.0000       0.097063         2.6412
  55   0.0000       0.098716         2.6862

MULLIKEN ATOMIC CHARGES
-----------------------
   0 C :    0.326062
   1 C :   -0.299492
   2 C :   -0.326351
   3 C :   -0.012837
   4 O :   -0.501246
   5 H :    0.150249
   6 H :    0.154102
   7 H :    0.151854
   8 H :    0.140844
   9 H :    0.199040
  10 H :    0.148827
  11 H :    0.144567
  12 C :   -0.034736
  13 H :    0.134495
  14 H :    0.153954
  15 O :   -0.545213
  16 C :    0.102009
  17 C :    0.087885
  18 C :   -0.314642
  19 C :   -0.021524
  20 O :   -0.521662
  21 H :    0.147897
  22 H :    0.162523
  23 O :   -0.606737
  24 H :    0.148080
  25 H :    0.175838
  26 H :    0.137034
  27 H :    0.148208
  28 H :    0.370968
Sum of atomic charges:    0.0000000

LOEWDIN ATOMIC CHARGES
----------------------
   0 C :    0.186775
   1 C :   -0.229693
   2 C :   -0.228479
   3 C :   -0.030072
   4 O :   -0.306755
   5 H :    0.098507
   6 H :    0.120687
   7 H :    0.117316
   8 H :    0.114581
   9 H :    0.132268
  10 H :    0.100797
  11 H :    0.104097
  12 C :   -0.049503
  13 H :    0.101165
  14 H :    0.111857
  15 O :   -0.351297
  16 C :    0.010995
  17 C :    0.036872
  18 C :   -0.241690
  19 C :   -0.029406
  20 O :   -0.324734
  21 H :    0.113613
  22 H :    0.115701
  23 O :   -0.409333
  24 H :    0.117960
  25 H :    0.127217
  26 H :    0.099876
  27 H :    0.103724
  28 H :    0.286953

  Mayer bond orders larger than 0.100000
B(  0-C ,  1-C ) :   0.9304 B(  0-C ,  4-O ) :   0.9338 B(  0-C ,  5-H ) :   0.9291
B(  0-C , 15-O ) :   0.8331 B(  1-C ,  2-C ) :   0.9507 B(  1-C ,  6-H ) :   0.9328
B(  1-C ,  7-H ) :   0.9247 B(  2-C ,  3-C ) :   0.9545 B(  2-C ,  8-H ) :   0.9452
B(  2-C ,  9-H ) :   0.9064 B(  3-C ,  4-O ) :   0.8352 B(  3-C , 10-H ) :   0.9240
B(  3-C , 11-H ) :   0.9377 B( 12-C , 13-H ) :   0.9188 B( 12-C , 14-H ) :   0.9090
B( 12-C , 15-O ) :   0.8471 B( 12-C , 16-C ) :   0.8975 B( 16-C , 17-C ) :   0.8868
B( 16-C , 20-O ) :   0.8727 B( 16-C , 21-H ) :   0.9232 B( 17-C , 18-C ) :   0.9327
B( 17-C , 22-H ) :   0.9363 B( 17-C , 23-O ) :   0.9048 B( 18-C , 19-C ) :   0.9476
B( 18-C , 24-H ) :   0.9407 B( 18-C , 25-H ) :   0.9254 B( 19-C , 20-O ) :   0.8292
B( 19-C , 26-H ) :   0.9161 B( 19-C , 27-H ) :   0.9390 B( 23-O , 28-H ) :   0.7886

FINAL SINGLE POINT ENERGY      -652.854742271031

DIPOLE MOMENT
-------------
                                X             Y             Z
Electronic contribution:     -3.07032      -2.54987      -1.55617
Nuclear contribution   :      3.82829       3.08371       1.52794
                        -----------------------------------------
Total Dipole Moment    :      0.75797       0.53384      -0.02823
                        -----------------------------------------
Magnitude (a.u.)       :      0.92752
Magnitude (Debye)      :      2.35758

Rotational constants in cm-1:     0.044517     0.019007     0.017404
Rotational constants in MHz :  1334.589417   569.819433   521.752573

                             ****ORCA TERMINATED NORMALLY****
TOTAL RUN TIME: 0 days 0 hours 36 minutes 2 seconds 765 msec
