                         Program Version 4.2.0 -  RELEASE  -
|  1> # Test redundant internal optimization
|  2> #
|  3> ! RKS B3LYP  Opt TightSCF SmallPrint
|  4>
|  5> %basis
|  6>         Basis "6-31G"
|  7> end
|  8>
|  9> %geom
| 10> Constraints
| 11> { D 4  0  15  12  165.0   C } # D for Dihedral angle
| 12> { D 0  15  12  16  180.0   C } # D for Dihedral angle
| 13> { D 0  4  3  2   C } # D for Dihedral angle
| 14> { D 4  3  2  1   C } # D for Dihedral angle
| 15> { D 3  2  1  0   C } # D for Dihedral angle
| 16> { D 2  1  0  4   C } # D for Dihedral angle
| 17> { D 1  0  4  3   C } # D for Dihedral angle
| 18> { D 16  20  19  18   C } # D for Dihedral angle
| 19> { D 20  19  18  17   C } # D for Dihedral angle
| 20> { D 19  18  17  16   C } # D for Dihedral angle
| 21> { D 18  17  16  20   C } # D for Dihedral angle
| 22> { D 17  16  20  19   C } # D for Dihedral angle
| 23> { D 15  12  16  20   C } # D for Dihedral angle
| 24> end
| 25> end
| 26>
| 27>
| 28> #%pal
| 29> #nprocs 8
| 30> #end
| 31>
| 32> * xyz 0 1
| 33> C  -21.048   26.222   46.251
| 34> C  -20.361   27.558   45.944
| 35> C  -20.329   28.222   47.341
| 36> C  -20.110   27.022   48.296
| 37> O  -20.473   25.807   47.535
| 38> H  -20.833   25.428   45.533
| 39> H  -19.344   27.382   45.576
| 40> H  -20.898   28.157   45.201
| 41> H  -19.543   28.978   47.434
| 42> H  -21.289   28.710   47.548
| 43> H  -20.733   27.082   49.195
| 44> H  -19.064   26.913   48.597
| 45> C  -23.260   27.170   45.210
| 46> H  -22.827   28.177   45.148
| 47> H  -23.081   26.660   44.255
| 48> O  -22.586   26.394   46.375
| 49> C  -24.797   27.309   45.391
| 50> C  -25.462   25.940   45.576
| 51> C  -25.159   25.643   47.064
| 52> C  -25.230   27.043   47.724
| 53> O  -25.104   28.031   46.630
| 54> H  -25.202   27.900   44.568
| 55> H  -26.542   26.022   45.411
| 56> O  -24.900   24.854   44.619
| 57> H  -25.866   24.936   47.509
| 58> H  -24.152   25.220   47.166
| 59> H  -24.427   27.207   48.451
| 60> H  -26.192   27.226   48.213
| 61> H  -23.819   24.756   44.768
| 62> *
| 63>
| 64>                          ****END OF INPUT****
 Total Charge           Charge          ....    0
 Multiplicity           Mult            ....    1
 Number of Electrons    NEL             ....  102
FINAL SINGLE POINT ENERGY      -652.830029007400
FINAL SINGLE POINT ENERGY      -652.853447540214
FINAL SINGLE POINT ENERGY      -652.858596961323
FINAL SINGLE POINT ENERGY      -652.860125004659
FINAL SINGLE POINT ENERGY      -652.860305814909
FINAL SINGLE POINT ENERGY      -652.860337455972
FINAL SINGLE POINT ENERGY      -652.860338959809
                    ***********************HURRAY********************

CARTESIAN COORDINATES (ANGSTROEM)
---------------------------------
  C    -21.064163   26.283188   46.169093
  C    -20.284383   27.571901   45.913513
  C    -20.340516   28.263106   47.299407
  C    -20.273394   27.072051   48.276365
  O    -20.638201   25.873943   47.474699
  H    -20.848479   25.463420   45.476457
  H    -19.253300   27.303839   45.655451
  H    -20.679644   28.191262   45.105399
  H    -19.518809   28.970360   47.445733
  H    -21.285848   28.803511   47.410400
  H    -20.972906   27.157897   49.111219
  H    -19.265854   26.892185   48.661952
  C    -23.179121   27.206929   45.183652
  H    -22.790389   28.229804   45.117087
  H    -23.029744   26.709620   44.213130
  O    -22.511657   26.478367   46.252429
  C    -24.675340   27.292063   45.471993
  C    -25.406046   25.943577   45.594681
  C    -25.156854   25.577658   47.090580
  C    -25.187154   26.956342   47.784580
  O    -24.986314   27.974303   46.719641
  H    -25.112456   27.902537   44.672342
  H    -26.470027   26.079127   45.389530
  O    -24.962220   24.938709   44.649668
  H    -25.918217   24.894212   47.478009
  H    -24.170110   25.119511   47.186138
  H    -24.393455   27.068380   48.528037
  H    -26.154344   27.174020   48.248502
  H    -24.102055   24.577178   44.949314

 Multiplicity           Mult            ....    1
 Number of Electrons    NEL             ....  102
 Basis Dimension        Dim             ....  149

ORBITAL ENERGIES
----------------

  NO   OCC          E(Eh)            E(eV)
   0   2.0000     -19.148753      -521.0640
   1   2.0000     -19.146281      -520.9968
   2   2.0000     -19.137546      -520.7591
   3   2.0000     -19.131918      -520.6060
   4   2.0000     -10.287476      -279.9365
   5   2.0000     -10.233632      -278.4713
   6   2.0000     -10.232863      -278.4504
   7   2.0000     -10.230013      -278.3728
   8   2.0000     -10.229587      -278.3612
   9   2.0000     -10.218324      -278.0547
  10   2.0000     -10.194426      -277.4044
  11   2.0000     -10.191794      -277.3328
  12   2.0000     -10.174398      -276.8594
  13   2.0000      -1.059820       -28.8392
  14   2.0000      -1.025293       -27.8996
  15   2.0000      -1.007570       -27.4174
  16   2.0000      -0.996792       -27.1241
  17   2.0000      -0.792275       -21.5589
  18   2.0000      -0.772559       -21.0224
  19   2.0000      -0.763067       -20.7641
  20   2.0000      -0.735266       -20.0076
  21   2.0000      -0.679087       -18.4789
  22   2.0000      -0.607021       -16.5179
  23   2.0000      -0.599392       -16.3103
  24   2.0000      -0.596426       -16.2296
  25   2.0000      -0.564387       -15.3578
  26   2.0000      -0.531451       -14.4615
  27   2.0000      -0.506518       -13.7830
  28   2.0000      -0.501986       -13.6597
  29   2.0000      -0.488499       -13.2927
  30   2.0000      -0.473358       -12.8807
  31   2.0000      -0.457527       -12.4500
  32   2.0000      -0.450186       -12.2502
  33   2.0000      -0.427351       -11.6288
  34   2.0000      -0.421159       -11.4603
  35   2.0000      -0.413677       -11.2567
  36   2.0000      -0.401365       -10.9217
  37   2.0000      -0.398703       -10.8493
  38   2.0000      -0.384015       -10.4496
  39   2.0000      -0.368646       -10.0314
  40   2.0000      -0.361361        -9.8331
  41   2.0000      -0.356885        -9.7113
  42   2.0000      -0.350172        -9.5287
  43   2.0000      -0.324562        -8.8318
  44   2.0000      -0.315676        -8.5900
  45   2.0000      -0.307019        -8.3544
  46   2.0000      -0.303420        -8.2565
  47   2.0000      -0.268940        -7.3182
  48   2.0000      -0.260253        -7.0818
  49   2.0000      -0.258744        -7.0408
  50   2.0000      -0.237717        -6.4686
  51   0.0000       0.062789         1.7086
  52   0.0000       0.081933         2.2295
  53   0.0000       0.092857         2.5268
  54   0.0000       0.098580         2.6825
  55   0.0000       0.105170         2.8618

MULLIKEN ATOMIC CHARGES
-----------------------
   0 C :    0.316169
   1 C :   -0.294238
   2 C :   -0.301522
   3 C :   -0.002175
   4 O :   -0.502524
   5 H :    0.142452
   6 H :    0.152776
   7 H :    0.147926
   8 H :    0.145537
   9 H :    0.169887
  10 H :    0.154927
  11 H :    0.144638
  12 C :   -0.018871
  13 H :    0.143318
  14 H :    0.132519
  15 O :   -0.531908
  16 C :    0.088520
  17 C :    0.087446
  18 C :   -0.318035
  19 C :   -0.000500
  20 O :   -0.524344
  21 H :    0.147648
  22 H :    0.160012
  23 O :   -0.608479
  24 H :    0.142687
  25 H :    0.178142
  26 H :    0.148507
  27 H :    0.137226
  28 H :    0.362261
Sum of atomic charges:   -0.0000000

LOEWDIN ATOMIC CHARGES
----------------------
   0 C :    0.182294
   1 C :   -0.233124
   2 C :   -0.217185
   3 C :   -0.024843
   4 O :   -0.305381
   5 H :    0.097162
   6 H :    0.119181
   7 H :    0.116128
   8 H :    0.116250
   9 H :    0.121575
  10 H :    0.109577
  11 H :    0.104075
  12 C :   -0.051441
  13 H :    0.100911
  14 H :    0.096864
  15 O :   -0.341527
  16 C :    0.020361
  17 C :    0.038040
  18 C :   -0.244100
  19 C :   -0.023466
  20 O :   -0.324950
  21 H :    0.113130
  22 H :    0.115066
  23 O :   -0.413233
  24 H :    0.114089
  25 H :    0.127954
  26 H :    0.105947
  27 H :    0.099139
  28 H :    0.281505

  Mayer bond orders larger than 0.100000
B(  0-C ,  1-C ) :   0.9322 B(  0-C ,  4-O ) :   0.9418 B(  0-C ,  5-H ) :   0.9230
B(  0-C , 15-O ) :   0.8230 B(  1-C ,  2-C ) :   0.9500 B(  1-C ,  6-H ) :   0.9336
B(  1-C ,  7-H ) :   0.9277 B(  2-C ,  3-C ) :   0.9556 B(  2-C ,  8-H ) :   0.9448
B(  2-C ,  9-H ) :   0.9415 B(  3-C ,  4-O ) :   0.8309 B(  3-C , 10-H ) :   0.9344
B(  3-C , 11-H ) :   0.9397 B( 12-C , 13-H ) :   0.9114 B( 12-C , 14-H ) :   0.9033
B( 12-C , 15-O ) :   0.8327 B( 12-C , 16-C ) :   0.9123 B( 16-C , 17-C ) :   0.8857
B( 16-C , 20-O ) :   0.8847 B( 16-C , 21-H ) :   0.9292 B( 17-C , 18-C ) :   0.9345
B( 17-C , 22-H ) :   0.9361 B( 17-C , 23-O ) :   0.8998 B( 18-C , 19-C ) :   0.9466
B( 18-C , 24-H ) :   0.9411 B( 18-C , 25-H ) :   0.9219 B( 19-C , 20-O ) :   0.8334
B( 19-C , 26-H ) :   0.9324 B( 19-C , 27-H ) :   0.9384 B( 23-O , 28-H ) :   0.7942

FINAL SINGLE POINT ENERGY      -652.860327858830

DIPOLE MOMENT
-------------
                                X             Y             Z
Electronic contribution:     -2.52561      -2.49785      -1.41146
Nuclear contribution   :      3.47202       3.00919       1.42732
                        -----------------------------------------
Total Dipole Moment    :      0.94641       0.51134       0.01586
                        -----------------------------------------
Magnitude (a.u.)       :      1.07583
Magnitude (Debye)      :      2.73454

Rotational constants in cm-1:     0.046805     0.016083     0.015217
Rotational constants in MHz :  1403.189427   482.158024   456.200283

                             ****ORCA TERMINATED NORMALLY****
TOTAL RUN TIME: 0 days 0 hours 48 minutes 43 seconds 497 msec
