                         Program Version 4.2.0 -  RELEASE  -
|  1> # Test redundant internal optimization
|  2> #
|  3> ! RKS B3LYP  Opt TightSCF SmallPrint
|  4>
|  5> %basis
|  6>         Basis "6-31G"
|  7> end
|  8>
|  9> %geom
| 10> Constraints
| 11> { D 4  0  15  12  45.0   C } # D for Dihedral angle
| 12> { D 0  15  12  16  105.0   C } # D for Dihedral angle
| 13> { D 0  4  3  2   C } # D for Dihedral angle
| 14> { D 4  3  2  1   C } # D for Dihedral angle
| 15> { D 3  2  1  0   C } # D for Dihedral angle
| 16> { D 2  1  0  4   C } # D for Dihedral angle
| 17> { D 1  0  4  3   C } # D for Dihedral angle
| 18> { D 16  20  19  18   C } # D for Dihedral angle
| 19> { D 20  19  18  17   C } # D for Dihedral angle
| 20> { D 19  18  17  16   C } # D for Dihedral angle
| 21> { D 18  17  16  20   C } # D for Dihedral angle
| 22> { D 17  16  20  19   C } # D for Dihedral angle
| 23> { D 15  12  16  20   C } # D for Dihedral angle
| 24> end
| 25> end
| 26>
| 27>
| 28> #%pal
| 29> #nprocs 8
| 30> #end
| 31>
| 32> * xyz 0 1
| 33> C  -21.048   26.222   46.251
| 34> C  -20.361   27.558   45.944
| 35> C  -20.329   28.222   47.341
| 36> C  -20.110   27.022   48.296
| 37> O  -20.473   25.807   47.535
| 38> H  -20.833   25.428   45.533
| 39> H  -19.344   27.382   45.576
| 40> H  -20.898   28.157   45.201
| 41> H  -19.543   28.978   47.434
| 42> H  -21.289   28.710   47.548
| 43> H  -20.733   27.082   49.195
| 44> H  -19.064   26.913   48.597
| 45> C  -23.065   27.161   47.638
| 46> H  -23.907   26.624   48.090
| 47> H  -22.258   27.222   48.379
| 48> O  -22.586   26.394   46.375
| 49> C  -23.525   28.611   47.321
| 50> C  -22.424   29.400   46.602
| 51> C  -22.560   28.876   45.152
| 52> C  -24.085   28.651   45.000
| 53> O  -24.641   28.599   46.369
| 54> H  -23.891   29.079   48.236
| 55> O  -22.731   30.921   46.665
| 56> H  -21.428   29.231   47.023
| 57> H  -22.165   29.576   44.408
| 58> H  -22.017   27.929   45.041
| 59> H  -24.322   27.717   44.479
| 60> H  -24.579   29.479   44.483
| 61> H  -23.726   31.114   46.247
| 62> *
| 63>
| 64>                          ****END OF INPUT****
 Total Charge           Charge          ....    0
 Multiplicity           Mult            ....    1
 Number of Electrons    NEL             ....  102
FINAL SINGLE POINT ENERGY      -652.611941566255
FINAL SINGLE POINT ENERGY      -652.697007059346
FINAL SINGLE POINT ENERGY      -652.746536075011
FINAL SINGLE POINT ENERGY      -652.778863971153
FINAL SINGLE POINT ENERGY      -652.799330028425
FINAL SINGLE POINT ENERGY      -652.812478279967
FINAL SINGLE POINT ENERGY      -652.820655401618
FINAL SINGLE POINT ENERGY      -652.825634832639
FINAL SINGLE POINT ENERGY      -652.828701147432
FINAL SINGLE POINT ENERGY      -652.830799547349
FINAL SINGLE POINT ENERGY      -652.841860864957
FINAL SINGLE POINT ENERGY      -652.841862273242
FINAL SINGLE POINT ENERGY      -652.841862876624
FINAL SINGLE POINT ENERGY      -652.841863033750
FINAL SINGLE POINT ENERGY      -652.841863385088
FINAL SINGLE POINT ENERGY      -652.841864081522
FINAL SINGLE POINT ENERGY      -652.841865315180
FINAL SINGLE POINT ENERGY      -652.841866879368
FINAL SINGLE POINT ENERGY      -652.841868212929
                    ***********************HURRAY********************

CARTESIAN COORDINATES (ANGSTROEM)
---------------------------------
  C    -21.063274   26.068059   46.622990
  C    -20.079466   27.029393   45.942838
  C    -19.707496   27.992314   47.107129
  C    -19.716768   27.049247   48.335728
  O    -20.482697   25.847941   47.928206
  H    -21.052514   25.095497   46.125896
  H    -19.206167   26.440105   45.643086
  H    -20.479460   27.521336   45.056788
  H    -18.733103   28.468795   46.964497
  H    -20.449456   28.783354   47.208628
  H    -20.187941   27.493027   49.217910
  H    -18.712640   26.708883   48.604515
  C    -23.197757   27.190547   47.587574
  H    -24.085832   26.611607   47.855069
  H    -22.599131   27.318591   48.501361
  O    -22.494953   26.308492   46.660309
  C    -23.741735   28.563164   47.143613
  C    -22.875242   29.740412   46.673595
  C    -22.721689   29.439752   45.157330
  C    -24.095103   28.812668   44.794414
  O    -24.714296   28.388150   46.061415
  H    -24.316189   28.900755   48.018213
  O    -23.586368   30.990778   46.901216
  H    -21.936769   29.858202   47.207505
  H    -22.506930   30.353925   44.598159
  H    -21.916838   28.725232   44.991768
  H    -23.993205   27.940167   44.142491
  H    -24.772042   29.531775   44.320923
  H    -24.509939   30.892832   46.585832

 Multiplicity           Mult            ....    1
 Number of Electrons    NEL             ....  102
 Basis Dimension        Dim             ....  149

ORBITAL ENERGIES
----------------

  NO   OCC          E(Eh)            E(eV)
   0   2.0000     -19.149306      -521.0791
   1   2.0000     -19.143670      -520.9257
   2   2.0000     -19.142342      -520.8896
   3   2.0000     -19.141408      -520.8642
   4   2.0000     -10.283125      -279.8181
   5   2.0000     -10.246706      -278.8270
   6   2.0000     -10.238313      -278.5987
   7   2.0000     -10.235145      -278.5125
   8   2.0000     -10.233632      -278.4713
   9   2.0000     -10.229666      -278.3634
  10   2.0000     -10.198596      -277.5179
  11   2.0000     -10.196775      -277.4684
  12   2.0000     -10.189662      -277.2748
  13   2.0000      -1.054013       -28.6812
  14   2.0000      -1.039978       -28.2992
  15   2.0000      -1.008861       -27.4525
  16   2.0000      -0.993854       -27.0441
  17   2.0000      -0.796322       -21.6690
  18   2.0000      -0.781885       -21.2762
  19   2.0000      -0.773998       -21.0616
  20   2.0000      -0.740536       -20.1510
  21   2.0000      -0.683128       -18.5889
  22   2.0000      -0.613985       -16.7074
  23   2.0000      -0.610630       -16.6161
  24   2.0000      -0.604927       -16.4609
  25   2.0000      -0.568727       -15.4758
  26   2.0000      -0.522666       -14.2225
  27   2.0000      -0.518502       -14.1091
  28   2.0000      -0.505535       -13.7563
  29   2.0000      -0.495437       -13.4815
  30   2.0000      -0.471481       -12.8297
  31   2.0000      -0.461526       -12.5588
  32   2.0000      -0.459321       -12.4988
  33   2.0000      -0.438867       -11.9422
  34   2.0000      -0.427689       -11.6380
  35   2.0000      -0.421628       -11.4731
  36   2.0000      -0.410914       -11.1815
  37   2.0000      -0.394392       -10.7320
  38   2.0000      -0.381058       -10.3691
  39   2.0000      -0.377707       -10.2779
  40   2.0000      -0.369570       -10.0565
  41   2.0000      -0.363906        -9.9024
  42   2.0000      -0.347134        -9.4460
  43   2.0000      -0.334347        -9.0981
  44   2.0000      -0.321892        -8.7591
  45   2.0000      -0.309111        -8.4113
  46   2.0000      -0.305041        -8.3006
  47   2.0000      -0.273798        -7.4504
  48   2.0000      -0.269360        -7.3296
  49   2.0000      -0.261751        -7.1226
  50   2.0000      -0.237996        -6.4762
  51   0.0000       0.057177         1.5559
  52   0.0000       0.070688         1.9235
  53   0.0000       0.082036         2.2323
  54   0.0000       0.090689         2.4678
  55   0.0000       0.102191         2.7808

MULLIKEN ATOMIC CHARGES
-----------------------
   0 C :    0.312179
   1 C :   -0.279868
   2 C :   -0.324631
   3 C :   -0.009962
   4 O :   -0.508436
   5 H :    0.166169
   6 H :    0.156959
   7 H :    0.154112
   8 H :    0.148296
   9 H :    0.153549
  10 H :    0.142534
  11 H :    0.150380
  12 C :   -0.007149
  13 H :    0.174674
  14 H :    0.131043
  15 O :   -0.529302
  16 C :    0.064305
  17 C :    0.064319
  18 C :   -0.300212
  19 C :   -0.024047
  20 O :   -0.520512
  21 H :    0.155798
  22 O :   -0.606077
  23 H :    0.157821
  24 H :    0.156971
  25 H :    0.155657
  26 H :    0.157254
  27 H :    0.141229
  28 H :    0.366948
Sum of atomic charges:    0.0000000

LOEWDIN ATOMIC CHARGES
----------------------
   0 C :    0.180666
   1 C :   -0.228798
   2 C :   -0.225607
   3 C :   -0.032265
   4 O :   -0.317743
   5 H :    0.111721
   6 H :    0.122929
   7 H :    0.116625
   8 H :    0.118422
   9 H :    0.108670
  10 H :    0.100797
  11 H :    0.105642
  12 C :   -0.038643
  13 H :    0.126605
  14 H :    0.100152
  15 O :   -0.328805
  16 C :    0.002499
  17 C :    0.033367
  18 C :   -0.241045
  19 C :   -0.034973
  20 O :   -0.327840
  21 H :    0.117178
  22 O :   -0.415051
  23 H :    0.112702
  24 H :    0.123569
  25 H :    0.116785
  26 H :    0.110101
  27 H :    0.098287
  28 H :    0.284053

  Mayer bond orders larger than 0.100000
B(  0-C ,  1-C ) :   0.9069 B(  0-C ,  4-O ) :   0.8969 B(  0-C ,  5-H ) :   0.9357
B(  0-C , 15-O ) :   0.8966 B(  1-C ,  2-C ) :   0.9583 B(  1-C ,  6-H ) :   0.9306
B(  1-C ,  7-H ) :   0.9199 B(  2-C ,  3-C ) :   0.9474 B(  2-C ,  8-H ) :   0.9456
B(  2-C ,  9-H ) :   0.9190 B(  3-C ,  4-O ) :   0.8412 B(  3-C , 10-H ) :   0.9331
B(  3-C , 11-H ) :   0.9389 B( 12-C , 13-H ) :   0.9274 B( 12-C , 14-H ) :   0.9101
B( 12-C , 15-O ) :   0.8610 B( 12-C , 16-C ) :   0.8903 B( 16-C , 17-C ) :   0.9069
B( 16-C , 20-O ) :   0.8559 B( 16-C , 21-H ) :   0.9111 B( 17-C , 18-C ) :   0.9233
B( 17-C , 22-O ) :   0.8768 B( 17-C , 23-H ) :   0.9133 B( 18-C , 19-C ) :   0.9424
B( 18-C , 24-H ) :   0.9382 B( 18-C , 25-H ) :   0.9089 B( 19-C , 20-O ) :   0.8455
B( 19-C , 26-H ) :   0.9324 B( 19-C , 27-H ) :   0.9360 B( 22-O , 28-H ) :   0.7917

FINAL SINGLE POINT ENERGY      -652.841869030310

DIPOLE MOMENT
-------------
                                X             Y             Z
Electronic contribution:     -4.60104      -2.39790       1.45962
Nuclear contribution   :      5.55970       2.96559      -1.90200
                        -----------------------------------------
Total Dipole Moment    :      0.95866       0.56769      -0.44239
                        -----------------------------------------
Magnitude (a.u.)       :      1.19875
Magnitude (Debye)      :      3.04697

Rotational constants in cm-1:     0.045336     0.017148     0.015895
Rotational constants in MHz :  1359.140893   514.075688   476.534746

                             ****ORCA TERMINATED NORMALLY****
TOTAL RUN TIME: 0 days 5 hours 2 minutes 32 seconds 785 msec
