                         Program Version 4.2.0 -  RELEASE  -
|  1> # Test redundant internal optimization
|  2> #
|  3> ! RKS B3LYP  Opt TightSCF SmallPrint
|  4>
|  5> %basis
|  6>         Basis "6-31G"
|  7> end
|  8>
|  9> %geom
| 10> Constraints
| 11> { D 4  0  15  12  135.0   C } # D for Dihedral angle
| 12> { D 0  15  12  16  75.0   C } # D for Dihedral angle
| 13> { D 0  4  3  2   C } # D for Dihedral angle
| 14> { D 4  3  2  1   C } # D for Dihedral angle
| 15> { D 3  2  1  0   C } # D for Dihedral angle
| 16> { D 2  1  0  4   C } # D for Dihedral angle
| 17> { D 1  0  4  3   C } # D for Dihedral angle
| 18> { D 16  20  19  18   C } # D for Dihedral angle
| 19> { D 20  19  18  17   C } # D for Dihedral angle
| 20> { D 19  18  17  16   C } # D for Dihedral angle
| 21> { D 18  17  16  20   C } # D for Dihedral angle
| 22> { D 17  16  20  19   C } # D for Dihedral angle
| 23> { D 15  12  16  20   C } # D for Dihedral angle
| 24> end
| 25> end
| 26>
| 27>
| 28> #%pal
| 29> #nprocs 8
| 30> #end
| 31>
| 32> * xyz 0 1
| 33> C  -21.048   26.222   46.251
| 34> C  -20.361   27.558   45.944
| 35> C  -20.329   28.222   47.341
| 36> C  -20.110   27.022   48.296
| 37> O  -20.473   25.807   47.535
| 38> H  -20.833   25.428   45.533
| 39> H  -19.344   27.382   45.576
| 40> H  -20.898   28.157   45.201
| 41> H  -19.543   28.978   47.434
| 42> H  -21.289   28.710   47.548
| 43> H  -20.733   27.082   49.195
| 44> H  -19.064   26.913   48.597
| 45> C  -23.162   27.680   45.721
| 46> H  -24.180   27.850   46.092
| 47> H  -22.550   28.552   45.985
| 48> O  -22.586   26.394   46.375
| 49> C  -23.215   27.592   44.170
| 50> C  -23.678   28.917   43.553
| 51> C  -22.383   29.761   43.615
| 52> C  -21.269   28.714   43.360
| 53> O  -21.870   27.389   43.621
| 54> H  -23.813   26.725   43.881
| 55> H  -23.989   28.760   42.514
| 56> O  -24.859   29.569   44.324
| 57> H  -22.369   30.572   42.879
| 58> H  -22.272   30.209   44.609
| 59> H  -20.405   28.852   44.021
| 60> H  -20.925   28.714   42.322
| 61> H  -24.571   29.736   45.368
| 62> *
| 63>
| 64>                          ****END OF INPUT****
 Total Charge           Charge          ....    0
 Multiplicity           Mult            ....    1
 Number of Electrons    NEL             ....  102
FINAL SINGLE POINT ENERGY      -652.797725449839
FINAL SINGLE POINT ENERGY      -652.829743240676
FINAL SINGLE POINT ENERGY      -652.845570563500
FINAL SINGLE POINT ENERGY      -652.847959537528
FINAL SINGLE POINT ENERGY      -652.848360083489
FINAL SINGLE POINT ENERGY      -652.848462937262
FINAL SINGLE POINT ENERGY      -652.848473750926
FINAL SINGLE POINT ENERGY      -652.848474194429
                    ***********************HURRAY********************

CARTESIAN COORDINATES (ANGSTROEM)
---------------------------------
  C    -21.016916   26.222622   46.335369
  C    -20.068907   27.402099   46.108906
  C    -20.093029   28.110651   47.490941
  C    -20.218093   26.919922   48.469402
  O    -20.695146   25.777616   47.664428
  H    -20.866473   25.373440   45.669536
  H    -19.070006   27.001099   45.903349
  H    -20.354595   28.035094   45.274616
  H    -19.192401   28.705436   47.672145
  H    -20.959274   28.776561   47.572276
  H    -20.928238   27.103525   49.280605
  H    -19.254275   26.626309   48.896558
  C    -23.059637   27.704296   45.733272
  H    -24.084152   27.691894   46.115673
  H    -22.571606   28.626891   46.088380
  O    -22.445808   26.532941   46.317934
  C    -23.126421   27.676163   44.199319
  C    -23.806747   28.898090   43.554385
  C    -22.612059   29.888325   43.410408
  C    -21.425442   28.952770   43.096064
  O    -21.839889   27.582737   43.512416
  H    -23.647668   26.750957   43.930541
  H    -24.194358   28.621505   42.572327
  O    -24.954236   29.421324   44.264424
  H    -22.784459   30.635137   42.630970
  H    -22.460508   30.419647   44.360001
  H    -20.510153   29.233711   43.625974
  H    -21.207284   28.900204   42.025944
  H    -24.673220   29.876034   45.084838

 Multiplicity           Mult            ....    1
 Number of Electrons    NEL             ....  102
 Basis Dimension        Dim             ....  149

ORBITAL ENERGIES
----------------

  NO   OCC          E(Eh)            E(eV)
   0   2.0000     -19.155792      -521.2556
   1   2.0000     -19.151949      -521.1510
   2   2.0000     -19.132363      -520.6181
   3   2.0000     -19.132237      -520.6146
   4   2.0000     -10.272887      -279.5395
   5   2.0000     -10.251813      -278.9660
   6   2.0000     -10.241132      -278.6754
   7   2.0000     -10.236234      -278.5421
   8   2.0000     -10.234750      -278.5017
   9   2.0000     -10.222188      -278.1599
  10   2.0000     -10.203729      -277.6576
  11   2.0000     -10.189043      -277.2580
  12   2.0000     -10.182794      -277.0879
  13   2.0000      -1.046720       -28.4827
  14   2.0000      -1.039626       -28.2897
  15   2.0000      -1.024522       -27.8787
  16   2.0000      -0.986211       -26.8362
  17   2.0000      -0.790762       -21.5177
  18   2.0000      -0.783748       -21.3269
  19   2.0000      -0.773175       -21.0392
  20   2.0000      -0.732548       -19.9336
  21   2.0000      -0.687404       -18.7052
  22   2.0000      -0.620091       -16.8735
  23   2.0000      -0.603323       -16.4172
  24   2.0000      -0.597681       -16.2637
  25   2.0000      -0.565852       -15.3976
  26   2.0000      -0.532996       -14.5036
  27   2.0000      -0.517795       -14.0899
  28   2.0000      -0.503695       -13.7062
  29   2.0000      -0.486558       -13.2399
  30   2.0000      -0.470277       -12.7969
  31   2.0000      -0.461520       -12.5586
  32   2.0000      -0.450714       -12.2646
  33   2.0000      -0.439188       -11.9509
  34   2.0000      -0.429823       -11.6961
  35   2.0000      -0.427208       -11.6249
  36   2.0000      -0.408325       -11.1111
  37   2.0000      -0.401708       -10.9310
  38   2.0000      -0.387577       -10.5465
  39   2.0000      -0.374870       -10.2007
  40   2.0000      -0.359804        -9.7908
  41   2.0000      -0.355486        -9.6733
  42   2.0000      -0.349731        -9.5167
  43   2.0000      -0.340633        -9.2691
  44   2.0000      -0.322996        -8.7892
  45   2.0000      -0.307186        -8.3590
  46   2.0000      -0.286931        -7.8078
  47   2.0000      -0.278130        -7.5683
  48   2.0000      -0.270865        -7.3706
  49   2.0000      -0.251640        -6.8475
  50   2.0000      -0.237678        -6.4676
  51   0.0000       0.042680         1.1614
  52   0.0000       0.061787         1.6813
  53   0.0000       0.082238         2.2378
  54   0.0000       0.094398         2.5687
  55   0.0000       0.097063         2.6412

MULLIKEN ATOMIC CHARGES
-----------------------
   0 C :    0.326574
   1 C :   -0.298374
   2 C :   -0.310185
   3 C :    0.003123
   4 O :   -0.496178
   5 H :    0.162407
   6 H :    0.149474
   7 H :    0.161524
   8 H :    0.140752
   9 H :    0.143603
  10 H :    0.147400
  11 H :    0.141567
  12 C :   -0.018886
  13 H :    0.166410
  14 H :    0.100117
  15 O :   -0.529795
  16 C :    0.092283
  17 C :    0.082415
  18 C :   -0.320099
  19 C :   -0.018358
  20 O :   -0.515631
  21 H :    0.166558
  22 H :    0.171991
  23 O :   -0.595935
  24 H :    0.163154
  25 H :    0.133138
  26 H :    0.137533
  27 H :    0.156511
  28 H :    0.356907
Sum of atomic charges:   -0.0000000

LOEWDIN ATOMIC CHARGES
----------------------
   0 C :    0.191897
   1 C :   -0.231910
   2 C :   -0.222185
   3 C :   -0.028222
   4 O :   -0.308327
   5 H :    0.110259
   6 H :    0.120533
   7 H :    0.122049
   8 H :    0.113422
   9 H :    0.105178
  10 H :    0.105019
  11 H :    0.102145
  12 C :   -0.046370
  13 H :    0.123964
  14 H :    0.077380
  15 O :   -0.331819
  16 C :    0.005154
  17 C :    0.035831
  18 C :   -0.241211
  19 C :   -0.033438
  20 O :   -0.321773
  21 H :    0.119403
  22 H :    0.121534
  23 O :   -0.404062
  24 H :    0.125502
  25 H :    0.104139
  26 H :    0.097564
  27 H :    0.109712
  28 H :    0.278631

  Mayer bond orders larger than 0.100000
B(  0-C ,  1-C ) :   0.9359 B(  0-C ,  4-O ) :   0.9198 B(  0-C ,  5-H ) :   0.9286
B(  0-C , 15-O ) :   0.8342 B(  1-C ,  2-C ) :   0.9473 B(  1-C ,  6-H ) :   0.9369
B(  1-C ,  7-H ) :   0.9097 B(  2-C ,  3-C ) :   0.9506 B(  2-C ,  8-H ) :   0.9459
B(  2-C ,  9-H ) :   0.9422 B(  3-C ,  4-O ) :   0.8453 B(  3-C , 10-H ) :   0.9349
B(  3-C , 11-H ) :   0.9395 B( 12-C , 13-H ) :   0.9198 B( 12-C , 14-H ) :   0.9094
B( 12-C , 15-O ) :   0.8749 B( 12-C , 16-C ) :   0.8869 B( 16-C , 17-C ) :   0.8656
B( 16-C , 20-O ) :   0.8565 B( 16-C , 21-H ) :   0.9286 B( 17-C , 18-C ) :   0.9226
B( 17-C , 22-H ) :   0.9323 B( 17-C , 23-O ) :   0.9025 B( 18-C , 19-C ) :   0.9415
B( 18-C , 24-H ) :   0.9407 B( 18-C , 25-H ) :   0.9410 B( 19-C , 20-O ) :   0.8424
B( 19-C , 26-H ) :   0.9214 B( 19-C , 27-H ) :   0.9390 B( 23-O , 28-H ) :   0.7976

FINAL SINGLE POINT ENERGY      -652.848472803898

DIPOLE MOMENT
-------------
                                X             Y             Z
Electronic contribution:     -3.69072      -5.46411      -0.54759
Nuclear contribution   :      4.47032       7.37010       0.25306
                        -----------------------------------------
Total Dipole Moment    :      0.77960       1.90599      -0.29453
                        -----------------------------------------
Magnitude (a.u.)       :      2.08022
Magnitude (Debye)      :      5.28750

Rotational constants in cm-1:     0.051561     0.014956     0.013930
Rotational constants in MHz :  1545.760708   448.368736   417.617138

                             ****ORCA TERMINATED NORMALLY****
TOTAL RUN TIME: 0 days 1 hours 34 minutes 23 seconds 332 msec
