                         Program Version 4.2.0 -  RELEASE  -
|  1> # Test redundant internal optimization
|  2> #
|  3> ! RKS B3LYP  Opt TightSCF SmallPrint
|  4>
|  5> %basis
|  6>         Basis "6-31G"
|  7> end
|  8>
|  9> %geom
| 10> Constraints
| 11> { D 4  0  15  12  150.0   C } # D for Dihedral angle
| 12> { D 0  15  12  16  225.0   C } # D for Dihedral angle
| 13> { D 0  4  3  2   C } # D for Dihedral angle
| 14> { D 4  3  2  1   C } # D for Dihedral angle
| 15> { D 3  2  1  0   C } # D for Dihedral angle
| 16> { D 2  1  0  4   C } # D for Dihedral angle
| 17> { D 1  0  4  3   C } # D for Dihedral angle
| 18> { D 16  20  19  18   C } # D for Dihedral angle
| 19> { D 20  19  18  17   C } # D for Dihedral angle
| 20> { D 19  18  17  16   C } # D for Dihedral angle
| 21> { D 18  17  16  20   C } # D for Dihedral angle
| 22> { D 17  16  20  19   C } # D for Dihedral angle
| 23> { D 15  12  16  20   C } # D for Dihedral angle
| 24> end
| 25> end
| 26>
| 27>
| 28> #%pal
| 29> #nprocs 8
| 30> #end
| 31>
| 32> * xyz 0 1
| 33> C  -21.048   26.222   46.251
| 34> C  -20.361   27.558   45.944
| 35> C  -20.329   28.222   47.341
| 36> C  -20.110   27.022   48.296
| 37> O  -20.473   25.807   47.535
| 38> H  -20.833   25.428   45.533
| 39> H  -19.344   27.382   45.576
| 40> H  -20.898   28.157   45.201
| 41> H  -19.543   28.978   47.434
| 42> H  -21.289   28.710   47.548
| 43> H  -20.733   27.082   49.195
| 44> H  -19.064   26.913   48.597
| 45> C  -23.210   27.459   45.431
| 46> H  -22.412   28.089   45.019
| 47> H  -23.730   26.973   44.596
| 48> O  -22.586   26.394   46.375
| 49> C  -24.232   28.378   46.156
| 50> C  -23.551   29.226   47.235
| 51> C  -22.905   30.350   46.390
| 52> C  -23.933   30.567   45.251
| 53> O  -24.788   29.362   45.221
| 54> H  -25.066   27.772   46.516
| 55> O  -24.615   29.810   48.204
| 56> H  -22.819   28.665   47.826
| 57> H  -22.722   31.262   46.966
| 58> H  -21.945   30.011   45.985
| 59> H  -23.456   30.693   44.274
| 60> H  -24.588   31.423   45.437
| 61> H  -25.360   30.378   47.634
| 62> *
| 63>
| 64>                          ****END OF INPUT****
 Total Charge           Charge          ....    0
 Multiplicity           Mult            ....    1
 Number of Electrons    NEL             ....  102
FINAL SINGLE POINT ENERGY      -652.813284879421
FINAL SINGLE POINT ENERGY      -652.838123913472
FINAL SINGLE POINT ENERGY      -652.848481464776
FINAL SINGLE POINT ENERGY      -652.850625650750
FINAL SINGLE POINT ENERGY      -652.851040827679
FINAL SINGLE POINT ENERGY      -652.851094282601
FINAL SINGLE POINT ENERGY      -652.851101066247
                    ***********************HURRAY********************

CARTESIAN COORDINATES (ANGSTROEM)
---------------------------------
  C    -21.121518   26.269258   46.274540
  C    -20.144296   27.391730   45.917811
  C    -20.060433   28.187726   47.250131
  C    -20.172573   27.070426   48.311786
  O    -20.741753   25.896927   47.605591
  H    -20.984408   25.371710   45.663977
  H    -19.179473   26.929947   45.683815
  H    -20.434626   28.006535   45.061936
  H    -19.124370   28.747941   47.337449
  H    -20.883117   28.899113   47.332215
  H    -20.827691   27.331645   49.147266
  H    -19.198956   26.759814   48.700887
  C    -23.192155   27.516437   45.378513
  H    -22.456915   28.153258   44.869453
  H    -23.747594   26.973042   44.605816
  O    -22.552495   26.562307   46.269320
  C    -24.180830   28.397437   46.154262
  C    -23.615727   29.292524   47.266078
  C    -23.049002   30.486866   46.452806
  C    -24.056964   30.620719   45.283769
  O    -24.795799   29.339201   45.212548
  H    -24.983050   27.769499   46.553275
  O    -24.675488   29.721911   48.164567
  H    -22.889190   28.786138   47.896877
  H    -22.993245   31.384892   47.073078
  H    -22.042860   30.263891   46.081588
  H    -23.570388   30.806477   44.321220
  H    -24.795793   31.409122   45.457330
  H    -25.472294   29.946508   47.639096

 Multiplicity           Mult            ....    1
 Number of Electrons    NEL             ....  102
 Basis Dimension        Dim             ....  149

ORBITAL ENERGIES
----------------

  NO   OCC          E(Eh)            E(eV)
   0   2.0000     -19.149258      -521.0778
   1   2.0000     -19.143525      -520.9218
   2   2.0000     -19.141452      -520.8654
   3   2.0000     -19.138978      -520.7981
   4   2.0000     -10.284947      -279.8676
   5   2.0000     -10.241846      -278.6948
   6   2.0000     -10.236468      -278.5485
   7   2.0000     -10.236043      -278.5369
   8   2.0000     -10.235576      -278.5242
   9   2.0000     -10.230456      -278.3849
  10   2.0000     -10.198969      -277.5280
  11   2.0000     -10.197117      -277.4777
  12   2.0000     -10.194003      -277.3929
  13   2.0000      -1.053825       -28.6760
  14   2.0000      -1.041224       -28.3332
  15   2.0000      -1.008623       -27.4460
  16   2.0000      -0.995685       -27.0940
  17   2.0000      -0.795066       -21.6348
  18   2.0000      -0.784248       -21.3405
  19   2.0000      -0.773272       -21.0418
  20   2.0000      -0.737269       -20.0621
  21   2.0000      -0.683590       -18.6014
  22   2.0000      -0.610311       -16.6074
  23   2.0000      -0.607908       -16.5420
  24   2.0000      -0.598539       -16.2871
  25   2.0000      -0.580008       -15.7828
  26   2.0000      -0.529085       -14.3971
  27   2.0000      -0.516914       -14.0660
  28   2.0000      -0.506224       -13.7751
  29   2.0000      -0.496998       -13.5240
  30   2.0000      -0.480705       -13.0806
  31   2.0000      -0.458771       -12.4838
  32   2.0000      -0.454620       -12.3708
  33   2.0000      -0.442002       -12.0275
  34   2.0000      -0.429903       -11.6983
  35   2.0000      -0.421029       -11.4568
  36   2.0000      -0.410961       -11.1828
  37   2.0000      -0.397763       -10.8237
  38   2.0000      -0.383416       -10.4333
  39   2.0000      -0.374465       -10.1897
  40   2.0000      -0.368586       -10.0297
  41   2.0000      -0.360642        -9.8136
  42   2.0000      -0.357936        -9.7399
  43   2.0000      -0.335681        -9.1343
  44   2.0000      -0.317025        -8.6267
  45   2.0000      -0.309453        -8.4206
  46   2.0000      -0.297880        -8.1057
  47   2.0000      -0.277526        -7.5519
  48   2.0000      -0.267050        -7.2668
  49   2.0000      -0.257841        -7.0162
  50   2.0000      -0.244014        -6.6400
  51   0.0000       0.055705         1.5158
  52   0.0000       0.064300         1.7497
  53   0.0000       0.087360         2.3772
  54   0.0000       0.089171         2.4265
  55   0.0000       0.099313         2.7025

MULLIKEN ATOMIC CHARGES
-----------------------
   0 C :    0.329102
   1 C :   -0.302785
   2 C :   -0.315876
   3 C :   -0.005258
   4 O :   -0.494377
   5 H :    0.151349
   6 H :    0.159035
   7 H :    0.143395
   8 H :    0.146359
   9 H :    0.156049
  10 H :    0.156191
  11 H :    0.147059
  12 C :    0.000075
  13 H :    0.114733
  14 H :    0.156499
  15 O :   -0.534224
  16 C :    0.060492
  17 C :    0.086361
  18 C :   -0.307331
  19 C :   -0.025102
  20 O :   -0.527075
  21 H :    0.173314
  22 O :   -0.605001
  23 H :    0.170841
  24 H :    0.165502
  25 H :    0.143220
  26 H :    0.143370
  27 H :    0.149024
  28 H :    0.365057
Sum of atomic charges:   -0.0000000

LOEWDIN ATOMIC CHARGES
----------------------
   0 C :    0.187932
   1 C :   -0.233051
   2 C :   -0.223153
   3 C :   -0.028405
   4 O :   -0.302220
   5 H :    0.099657
   6 H :    0.123986
   7 H :    0.112635
   8 H :    0.117004
   9 H :    0.111272
  10 H :    0.108818
  11 H :    0.105502
  12 C :   -0.034878
  13 H :    0.088939
  14 H :    0.110674
  15 O :   -0.341547
  16 C :    0.015168
  17 C :    0.036973
  18 C :   -0.244941
  19 C :   -0.036867
  20 O :   -0.329564
  21 H :    0.120797
  22 O :   -0.412882
  23 H :    0.121218
  24 H :    0.128044
  25 H :    0.109336
  26 H :    0.102629
  27 H :    0.103973
  28 H :    0.282950

  Mayer bond orders larger than 0.100000
B(  0-C ,  1-C ) :   0.9259 B(  0-C ,  4-O ) :   0.9323 B(  0-C ,  5-H ) :   0.9274
B(  0-C , 15-O ) :   0.8458 B(  1-C ,  2-C ) :   0.9521 B(  1-C ,  6-H ) :   0.9323
B(  1-C ,  7-H ) :   0.9264 B(  2-C ,  3-C ) :   0.9509 B(  2-C ,  8-H ) :   0.9461
B(  2-C ,  9-H ) :   0.9258 B(  3-C ,  4-O ) :   0.8393 B(  3-C , 10-H ) :   0.9317
B(  3-C , 11-H ) :   0.9384 B( 12-C , 13-H ) :   0.9149 B( 12-C , 14-H ) :   0.9225
B( 12-C , 15-O ) :   0.8356 B( 12-C , 16-C ) :   0.8967 B( 16-C , 17-C ) :   0.9114
B( 16-C , 20-O ) :   0.8376 B( 16-C , 21-H ) :   0.9238 B( 17-C , 18-C ) :   0.9109
B( 17-C , 22-O ) :   0.8815 B( 17-C , 23-H ) :   0.9154 B( 18-C , 19-C ) :   0.9344
B( 18-C , 24-H ) :   0.9381 B( 18-C , 25-H ) :   0.9264 B( 19-C , 20-O ) :   0.8444
B( 19-C , 26-H ) :   0.9362 B( 19-C , 27-H ) :   0.9378 B( 22-O , 28-H ) :   0.7936

FINAL SINGLE POINT ENERGY      -652.851102085146

DIPOLE MOMENT
-------------
                                X             Y             Z
Electronic contribution:     -5.06693      -4.47848       1.01456
Nuclear contribution   :      6.20813       5.67805      -1.87584
                        -----------------------------------------
Total Dipole Moment    :      1.14120       1.19956      -0.86128
                        -----------------------------------------
Magnitude (a.u.)       :      1.86630
Magnitude (Debye)      :      4.74377

Rotational constants in cm-1:     0.045933     0.016070     0.015148
Rotational constants in MHz :  1377.022095   481.780097   454.119537

                             ****ORCA TERMINATED NORMALLY****
TOTAL RUN TIME: 0 days 0 hours 57 minutes 59 seconds 321 msec
