                         Program Version 4.2.0 -  RELEASE  -
|  1> # Test redundant internal optimization
|  2> #
|  3> ! RKS B3LYP  Opt TightSCF SmallPrint
|  4>
|  5> %basis
|  6>         Basis "6-31G"
|  7> end
|  8>
|  9> %geom
| 10> Constraints
| 11> { D 4  0  15  12  75.0   C } # D for Dihedral angle
| 12> { D 0  15  12  16  135.0   C } # D for Dihedral angle
| 13> { D 0  4  3  2   C } # D for Dihedral angle
| 14> { D 4  3  2  1   C } # D for Dihedral angle
| 15> { D 3  2  1  0   C } # D for Dihedral angle
| 16> { D 2  1  0  4   C } # D for Dihedral angle
| 17> { D 1  0  4  3   C } # D for Dihedral angle
| 18> { D 16  20  19  18   C } # D for Dihedral angle
| 19> { D 20  19  18  17   C } # D for Dihedral angle
| 20> { D 19  18  17  16   C } # D for Dihedral angle
| 21> { D 18  17  16  20   C } # D for Dihedral angle
| 22> { D 17  16  20  19   C } # D for Dihedral angle
| 23> { D 15  12  16  20   C } # D for Dihedral angle
| 24> end
| 25> end
| 26>
| 27>
| 28> #%pal
| 29> #nprocs 8
| 30> #end
| 31>
| 32> * xyz 0 1
| 33> C  -21.048   26.222   46.251
| 34> C  -20.361   27.558   45.944
| 35> C  -20.329   28.222   47.341
| 36> C  -20.110   27.022   48.296
| 37> O  -20.473   25.807   47.535
| 38> H  -20.833   25.428   45.533
| 39> H  -19.344   27.382   45.576
| 40> H  -20.898   28.157   45.201
| 41> H  -19.543   28.978   47.434
| 42> H  -21.289   28.710   47.548
| 43> H  -20.733   27.082   49.195
| 44> H  -19.064   26.913   48.597
| 45> C  -23.049   27.675   47.122
| 46> H  -23.391   27.403   48.129
| 47> H  -22.217   28.383   47.222
| 48> O  -22.586   26.394   46.375
| 49> C  -24.210   28.408   46.394
| 50> C  -23.836   28.741   44.944
| 51> C  -24.053   27.378   44.244
| 52> C  -25.268   26.784   45.000
| 53> O  -25.376   27.528   46.273
| 54> H  -24.518   29.269   46.989
| 55> O  -24.808   29.809   44.376
| 56> H  -22.811   29.114   44.838
| 57> H  -24.237   27.477   43.170
| 58> H  -23.168   26.742   44.375
| 59> H  -25.147   25.717   45.216
| 60> H  -26.208   26.931   44.460
| 61> H  -25.841   29.456   44.471
| 62> *
| 63>
| 64>                          ****END OF INPUT****
 Total Charge           Charge          ....    0
 Multiplicity           Mult            ....    1
 Number of Electrons    NEL             ....  102
FINAL SINGLE POINT ENERGY      -652.782078620039
FINAL SINGLE POINT ENERGY      -652.827469895342
FINAL SINGLE POINT ENERGY      -652.847623034804
FINAL SINGLE POINT ENERGY      -652.852355626733
FINAL SINGLE POINT ENERGY      -652.853193890261
FINAL SINGLE POINT ENERGY      -652.853370085522
FINAL SINGLE POINT ENERGY      -652.853419002875
FINAL SINGLE POINT ENERGY      -652.853427040361
FINAL SINGLE POINT ENERGY      -652.853426652421
                    ***********************HURRAY********************

CARTESIAN COORDINATES (ANGSTROEM)
---------------------------------
  C    -21.210652   26.330801   46.490044
  C    -20.300333   27.463624   45.986871
  C    -19.955790   28.220797   47.308015
  C    -19.879929   27.063545   48.338187
  O    -20.583365   25.913973   47.723753
  H    -21.177377   25.452429   45.843116
  H    -19.399305   27.016711   45.556004
  H    -20.773792   28.095856   45.230612
  H    -19.003535   28.756246   47.235884
  H    -20.720225   28.955449   47.569175
  H    -20.355488   27.304876   49.293492
  H    -18.850807   26.743451   48.524162
  C    -23.253588   27.711022   47.205937
  H    -23.681365   27.378181   48.157544
  H    -22.533817   28.508670   47.408724
  O    -22.633689   26.550631   46.575736
  C    -24.380999   28.285821   46.345423
  C    -24.011149   28.787530   44.940427
  C    -24.070559   27.476506   44.109421
  C    -25.234767   26.699582   44.773730
  O    -25.443201   27.311882   46.106641
  H    -24.831436   29.103959   46.922023
  O    -24.973542   29.777068   44.480570
  H    -23.043674   29.289976   44.891667
  H    -24.251841   27.697821   43.053707
  H    -23.135015   26.926138   44.214117
  H    -25.002626   25.640544   44.910406
  H    -26.177627   26.794911   44.224500
  H    -25.879506   29.432001   44.629110

 Multiplicity           Mult            ....    1
 Number of Electrons    NEL             ....  102
 Basis Dimension        Dim             ....  149

ORBITAL ENERGIES
----------------

  NO   OCC          E(Eh)            E(eV)
   0   2.0000     -19.148689      -521.0623
   1   2.0000     -19.144900      -520.9592
   2   2.0000     -19.138198      -520.7769
   3   2.0000     -19.137453      -520.7566
   4   2.0000     -10.285036      -279.8701
   5   2.0000     -10.240720      -278.6641
   6   2.0000     -10.235154      -278.5127
   7   2.0000     -10.234918      -278.5063
   8   2.0000     -10.233575      -278.4697
   9   2.0000     -10.222950      -278.1806
  10   2.0000     -10.200164      -277.5606
  11   2.0000     -10.199419      -277.5403
  12   2.0000     -10.180081      -277.0141
  13   2.0000      -1.055343       -28.7173
  14   2.0000      -1.034227       -28.1427
  15   2.0000      -1.006321       -27.3834
  16   2.0000      -0.997556       -27.1449
  17   2.0000      -0.794390       -21.6164
  18   2.0000      -0.782154       -21.2835
  19   2.0000      -0.768360       -20.9081
  20   2.0000      -0.737923       -20.0799
  21   2.0000      -0.681006       -18.5311
  22   2.0000      -0.611586       -16.6421
  23   2.0000      -0.607173       -16.5220
  24   2.0000      -0.599548       -16.3145
  25   2.0000      -0.569710       -15.5026
  26   2.0000      -0.522902       -14.2289
  27   2.0000      -0.517687       -14.0870
  28   2.0000      -0.505279       -13.7493
  29   2.0000      -0.492526       -13.4023
  30   2.0000      -0.473367       -12.8810
  31   2.0000      -0.454670       -12.3722
  32   2.0000      -0.451153       -12.2765
  33   2.0000      -0.440629       -11.9901
  34   2.0000      -0.426884       -11.6161
  35   2.0000      -0.423544       -11.5252
  36   2.0000      -0.407001       -11.0751
  37   2.0000      -0.389581       -10.6010
  38   2.0000      -0.386995       -10.5307
  39   2.0000      -0.368830       -10.0364
  40   2.0000      -0.368260       -10.0209
  41   2.0000      -0.363363        -9.8876
  42   2.0000      -0.352070        -9.5803
  43   2.0000      -0.329407        -8.9636
  44   2.0000      -0.319666        -8.6986
  45   2.0000      -0.306921        -8.3517
  46   2.0000      -0.302646        -8.2354
  47   2.0000      -0.272262        -7.4086
  48   2.0000      -0.266594        -7.2544
  49   2.0000      -0.259845        -7.0707
  50   2.0000      -0.239449        -6.5157
  51   0.0000       0.057278         1.5586
  52   0.0000       0.072001         1.9592
  53   0.0000       0.085150         2.3170
  54   0.0000       0.095148         2.5891
  55   0.0000       0.107169         2.9162

MULLIKEN ATOMIC CHARGES
-----------------------
   0 C :    0.309924
   1 C :   -0.291631
   2 C :   -0.317891
   3 C :   -0.008566
   4 O :   -0.502343
   5 H :    0.165104
   6 H :    0.161269
   7 H :    0.149354
   8 H :    0.148390
   9 H :    0.153320
  10 H :    0.146981
  11 H :    0.149896
  12 C :   -0.003105
  13 H :    0.165100
  14 H :    0.120923
  15 O :   -0.525998
  16 C :    0.072481
  17 C :    0.073017
  18 C :   -0.287465
  19 C :   -0.021558
  20 O :   -0.522630
  21 H :    0.153410
  22 O :   -0.604480
  23 H :    0.142226
  24 H :    0.151306
  25 H :    0.161142
  26 H :    0.161839
  27 H :    0.135463
  28 H :    0.364522
Sum of atomic charges:   -0.0000000

LOEWDIN ATOMIC CHARGES
----------------------
   0 C :    0.174789
   1 C :   -0.231607
   2 C :   -0.224013
   3 C :   -0.032792
   4 O :   -0.318330
   5 H :    0.112083
   6 H :    0.125504
   7 H :    0.115595
   8 H :    0.116984
   9 H :    0.107784
  10 H :    0.104305
  11 H :    0.106089
  12 C :   -0.039397
  13 H :    0.117267
  14 H :    0.096620
  15 O :   -0.319201
  16 C :    0.011499
  17 C :    0.037153
  18 C :   -0.241259
  19 C :   -0.033276
  20 O :   -0.327223
  21 H :    0.114592
  22 O :   -0.416662
  23 H :    0.109178
  24 H :    0.119287
  25 H :    0.122569
  26 H :    0.113069
  27 H :    0.096177
  28 H :    0.283214

  Mayer bond orders larger than 0.100000
B(  0-C ,  1-C ) :   0.9152 B(  0-C ,  4-O ) :   0.9037 B(  0-C ,  5-H ) :   0.9364
B(  0-C , 15-O ) :   0.8937 B(  1-C ,  2-C ) :   0.9545 B(  1-C ,  6-H ) :   0.9341
B(  1-C ,  7-H ) :   0.9324 B(  2-C ,  3-C ) :   0.9456 B(  2-C ,  8-H ) :   0.9441
B(  2-C ,  9-H ) :   0.9347 B(  3-C ,  4-O ) :   0.8476 B(  3-C , 10-H ) :   0.9339
B(  3-C , 11-H ) :   0.9385 B( 12-C , 13-H ) :   0.9244 B( 12-C , 14-H ) :   0.8953
B( 12-C , 15-O ) :   0.8386 B( 12-C , 16-C ) :   0.9047 B( 16-C , 17-C ) :   0.9063
B( 16-C , 20-O ) :   0.8741 B( 16-C , 21-H ) :   0.9202 B( 17-C , 18-C ) :   0.9251
B( 17-C , 22-O ) :   0.8899 B( 17-C , 23-H ) :   0.9335 B( 18-C , 19-C ) :   0.9455
B( 18-C , 24-H ) :   0.9360 B( 18-C , 25-H ) :   0.9218 B( 19-C , 20-O ) :   0.8398
B( 19-C , 26-H ) :   0.9320 B( 19-C , 27-H ) :   0.9369 B( 22-O , 28-H ) :   0.7952

FINAL SINGLE POINT ENERGY      -652.853425162471

DIPOLE MOMENT
-------------
                                X             Y             Z
Electronic contribution:     -4.42726      -2.12624       0.95067
Nuclear contribution   :      5.42051       2.70250      -1.13628
                        -----------------------------------------
Total Dipole Moment    :      0.99326       0.57626      -0.18561
                        -----------------------------------------
Magnitude (a.u.)       :      1.16322
Magnitude (Debye)      :      2.95667

Rotational constants in cm-1:     0.054322     0.014608     0.013803
Rotational constants in MHz :  1628.530796   437.932572   413.815033

                             ****ORCA TERMINATED NORMALLY****
TOTAL RUN TIME: 0 days 0 hours 27 minutes 50 seconds 493 msec
