                         Program Version 4.2.0 -  RELEASE  -
|  1> # Test redundant internal optimization
|  2> #
|  3> ! RKS B3LYP  Opt TightSCF SmallPrint
|  4>
|  5> %basis
|  6>         Basis "6-31G"
|  7> end
|  8>
|  9> %geom
| 10> Constraints
| 11> { D 4  0  15  12  105.0   C } # D for Dihedral angle
| 12> { D 0  15  12  16  105.0   C } # D for Dihedral angle
| 13> { D 0  4  3  2   C } # D for Dihedral angle
| 14> { D 4  3  2  1   C } # D for Dihedral angle
| 15> { D 3  2  1  0   C } # D for Dihedral angle
| 16> { D 2  1  0  4   C } # D for Dihedral angle
| 17> { D 1  0  4  3   C } # D for Dihedral angle
| 18> { D 16  20  19  18   C } # D for Dihedral angle
| 19> { D 20  19  18  17   C } # D for Dihedral angle
| 20> { D 19  18  17  16   C } # D for Dihedral angle
| 21> { D 18  17  16  20   C } # D for Dihedral angle
| 22> { D 17  16  20  19   C } # D for Dihedral angle
| 23> { D 15  12  16  20   C } # D for Dihedral angle
| 24> end
| 25> end
| 26>
| 27>
| 28> #%pal
| 29> #nprocs 8
| 30> #end
| 31>
| 32> * xyz 0 1
| 33> C  -21.048   26.222   46.251
| 34> C  -20.361   27.558   45.944
| 35> C  -20.329   28.222   47.341
| 36> C  -20.110   27.022   48.296
| 37> O  -20.473   25.807   47.535
| 38> H  -20.833   25.428   45.533
| 39> H  -19.344   27.382   45.576
| 40> H  -20.898   28.157   45.201
| 41> H  -19.543   28.978   47.434
| 42> H  -21.289   28.710   47.548
| 43> H  -20.733   27.082   49.195
| 44> H  -19.064   26.913   48.597
| 45> C  -23.085   27.864   46.420
| 46> H  -23.827   27.970   47.221
| 47> H  -22.251   28.546   46.633
| 48> O  -22.586   26.394   46.375
| 49> C  -23.738   28.318   45.086
| 50> C  -25.018   27.526   44.795
| 51> C  -26.041   28.233   45.715
| 52> C  -25.584   29.713   45.676
| 53> O  -24.190   29.710   45.184
| 54> H  -22.991   28.280   44.290
| 55> H  -25.300   27.641   43.742
| 56> O  -24.879   26.009   45.101
| 57> H  -27.074   28.106   45.377
| 58> H  -25.970   27.833   46.733
| 59> H  -25.615   30.188   46.662
| 60> H  -26.172   30.313   44.976
| 61> H  -24.597   25.870   46.150
| 62> *
| 63>
| 64>                          ****END OF INPUT****
 Total Charge           Charge          ....    0
 Multiplicity           Mult            ....    1
 Number of Electrons    NEL             ....  102
FINAL SINGLE POINT ENERGY      -652.805098995542
FINAL SINGLE POINT ENERGY      -652.835871911891
FINAL SINGLE POINT ENERGY      -652.851207798156
FINAL SINGLE POINT ENERGY      -652.854993874496
FINAL SINGLE POINT ENERGY      -652.856630883681
FINAL SINGLE POINT ENERGY      -652.857553713105
FINAL SINGLE POINT ENERGY      -652.857904150961
FINAL SINGLE POINT ENERGY      -652.858009001418
FINAL SINGLE POINT ENERGY      -652.858021698774
                    ***********************HURRAY********************

CARTESIAN COORDINATES (ANGSTROEM)
---------------------------------
  C    -21.230004   26.361997   46.389597
  C    -20.258475   27.470361   45.964763
  C    -19.947648   28.172136   47.320767
  C    -19.961994   26.986039   48.316325
  O    -20.680546   25.885282   47.630051
  H    -21.234234   25.498325   45.723642
  H    -19.356958   26.998132   45.562778
  H    -20.660483   28.146781   45.205439
  H    -18.978200   28.679559   47.305619
  H    -20.704002   28.918500   47.574286
  H    -20.475770   27.215291   49.254020
  H    -18.958178   26.614446   48.539354
  C    -23.202033   28.052529   46.545373
  H    -23.947934   28.040648   47.346111
  H    -22.453238   28.807744   46.785312
  O    -22.642606   26.697135   46.491159
  C    -23.837012   28.392594   45.191191
  C    -25.031344   27.504615   44.801224
  C    -26.180702   28.136974   45.637838
  C    -25.836405   29.640041   45.629223
  O    -24.393973   29.742549   45.245740
  H    -23.062534   28.401256   44.416825
  H    -25.239853   27.646836   43.734859
  O    -24.863308   26.090757   45.014021
  H    -27.160933   27.922422   45.204344
  H    -26.161756   27.713392   46.647719
  H    -25.973827   30.124556   46.600720
  H    -26.397401   30.197928   44.873928
  H    -24.111647   25.936175   45.634772

 Multiplicity           Mult            ....    1
 Number of Electrons    NEL             ....  102
 Basis Dimension        Dim             ....  149

ORBITAL ENERGIES
----------------

  NO   OCC          E(Eh)            E(eV)
   0   2.0000     -19.162512      -521.4385
   1   2.0000     -19.149179      -521.0757
   2   2.0000     -19.143030      -520.9083
   3   2.0000     -19.113332      -520.1002
   4   2.0000     -10.293280      -280.0944
   5   2.0000     -10.241673      -278.6901
   6   2.0000     -10.236012      -278.5361
   7   2.0000     -10.235935      -278.5340
   8   2.0000     -10.231133      -278.4033
   9   2.0000     -10.228505      -278.3318
  10   2.0000     -10.204170      -277.6696
  11   2.0000     -10.202382      -277.6209
  12   2.0000     -10.179766      -277.0055
  13   2.0000      -1.062297       -28.9066
  14   2.0000      -1.027396       -27.9569
  15   2.0000      -1.008730       -27.4489
  16   2.0000      -0.992414       -27.0050
  17   2.0000      -0.798807       -21.7366
  18   2.0000      -0.778984       -21.1972
  19   2.0000      -0.769783       -20.9469
  20   2.0000      -0.740557       -20.1516
  21   2.0000      -0.686548       -18.6819
  22   2.0000      -0.614711       -16.7271
  23   2.0000      -0.603846       -16.4315
  24   2.0000      -0.597547       -16.2601
  25   2.0000      -0.576438       -15.6857
  26   2.0000      -0.539414       -14.6782
  27   2.0000      -0.512143       -13.9361
  28   2.0000      -0.509442       -13.8626
  29   2.0000      -0.489632       -13.3236
  30   2.0000      -0.476493       -12.9660
  31   2.0000      -0.463597       -12.6151
  32   2.0000      -0.442105       -12.0303
  33   2.0000      -0.440588       -11.9890
  34   2.0000      -0.427074       -11.6213
  35   2.0000      -0.422729       -11.5030
  36   2.0000      -0.411919       -11.2089
  37   2.0000      -0.394845       -10.7443
  38   2.0000      -0.390391       -10.6231
  39   2.0000      -0.374199       -10.1825
  40   2.0000      -0.367632       -10.0038
  41   2.0000      -0.362295        -9.8585
  42   2.0000      -0.348791        -9.4911
  43   2.0000      -0.340675        -9.2702
  44   2.0000      -0.324803        -8.8383
  45   2.0000      -0.312792        -8.5115
  46   2.0000      -0.288527        -7.8512
  47   2.0000      -0.282871        -7.6973
  48   2.0000      -0.268669        -7.3108
  49   2.0000      -0.248588        -6.7644
  50   2.0000      -0.240447        -6.5429
  51   0.0000       0.054247         1.4761
  52   0.0000       0.068433         1.8622
  53   0.0000       0.089416         2.4331
  54   0.0000       0.092311         2.5119
  55   0.0000       0.103369         2.8128

MULLIKEN ATOMIC CHARGES
-----------------------
   0 C :    0.323160
   1 C :   -0.304437
   2 C :   -0.315862
   3 C :   -0.008047
   4 O :   -0.493014
   5 H :    0.169870
   6 H :    0.165632
   7 H :    0.156381
   8 H :    0.151574
   9 H :    0.157349
  10 H :    0.151500
  11 H :    0.151509
  12 C :   -0.036252
  13 H :    0.162657
  14 H :    0.155898
  15 O :   -0.563292
  16 C :    0.050229
  17 C :    0.120410
  18 C :   -0.296325
  19 C :   -0.024354
  20 O :   -0.521672
  21 H :    0.151968
  22 H :    0.147281
  23 O :   -0.639762
  24 H :    0.150288
  25 H :    0.146544
  26 H :    0.141984
  27 H :    0.151848
  28 H :    0.396933
Sum of atomic charges:   -0.0000000

LOEWDIN ATOMIC CHARGES
----------------------
   0 C :    0.181295
   1 C :   -0.230701
   2 C :   -0.222140
   3 C :   -0.030635
   4 O :   -0.310840
   5 H :    0.113822
   6 H :    0.128193
   7 H :    0.119597
   8 H :    0.119166
   9 H :    0.111230
  10 H :    0.107132
  11 H :    0.107194
  12 C :   -0.048623
  13 H :    0.114357
  14 H :    0.110800
  15 O :   -0.335003
  16 C :    0.007899
  17 C :    0.041428
  18 C :   -0.235945
  19 C :   -0.032735
  20 O :   -0.327018
  21 H :    0.108219
  22 H :    0.105502
  23 O :   -0.433574
  24 H :    0.121400
  25 H :    0.111852
  26 H :    0.101929
  27 H :    0.106970
  28 H :    0.289229

  Mayer bond orders larger than 0.100000
B(  0-C ,  1-C ) :   0.9336 B(  0-C ,  4-O ) :   0.9292 B(  0-C ,  5-H ) :   0.9325
B(  0-C , 15-O ) :   0.8339 B(  1-C ,  2-C ) :   0.9506 B(  1-C ,  6-H ) :   0.9331
B(  1-C ,  7-H ) :   0.9291 B(  2-C ,  3-C ) :   0.9459 B(  2-C ,  8-H ) :   0.9442
B(  2-C ,  9-H ) :   0.9347 B(  3-C ,  4-O ) :   0.8408 B(  3-C , 10-H ) :   0.9343
B(  3-C , 11-H ) :   0.9388 B( 12-C , 13-H ) :   0.9339 B( 12-C , 14-H ) :   0.9096
B( 12-C , 15-O ) :   0.7887 B( 12-C , 16-C ) :   0.8866 B( 16-C , 17-C ) :   0.9113
B( 16-C , 20-O ) :   0.8557 B( 16-C , 21-H ) :   0.9285 B( 17-C , 18-C ) :   0.8997
B( 17-C , 22-H ) :   0.9312 B( 17-C , 23-O ) :   0.9386 B( 18-C , 19-C ) :   0.9382
B( 18-C , 24-H ) :   0.9451 B( 18-C , 25-H ) :   0.9429 B( 19-C , 20-O ) :   0.8304
B( 19-C , 26-H ) :   0.9346 B( 19-C , 27-H ) :   0.9379 B( 23-O , 28-H ) :   0.7222

FINAL SINGLE POINT ENERGY      -652.858023976009

DIPOLE MOMENT
-------------
                                X             Y             Z
Electronic contribution:     -1.07827      -3.67092      -1.20528
Nuclear contribution   :      1.95654       4.79600       1.57142
                        -----------------------------------------
Total Dipole Moment    :      0.87826       1.12508       0.36614
                        -----------------------------------------
Magnitude (a.u.)       :      1.47350
Magnitude (Debye)      :      3.74534

Rotational constants in cm-1:     0.055421     0.013949     0.012483
Rotational constants in MHz :  1661.468577   418.176114   374.226379

                             ****ORCA TERMINATED NORMALLY****
TOTAL RUN TIME: 0 days 2 hours 14 minutes 6 seconds 295 msec
