                         Program Version 4.2.0 -  RELEASE  -
|  1> # Test redundant internal optimization
|  2> #
|  3> ! RKS B3LYP  Opt TightSCF SmallPrint
|  4>
|  5> %basis
|  6>         Basis "6-31G"
|  7> end
|  8>
|  9> %geom
| 10> Constraints
| 11> { D 4  0  15  12  195.0   C } # D for Dihedral angle
| 12> { D 0  15  12  16  180.0   C } # D for Dihedral angle
| 13> { D 0  4  3  2   C } # D for Dihedral angle
| 14> { D 4  3  2  1   C } # D for Dihedral angle
| 15> { D 3  2  1  0   C } # D for Dihedral angle
| 16> { D 2  1  0  4   C } # D for Dihedral angle
| 17> { D 1  0  4  3   C } # D for Dihedral angle
| 18> { D 16  20  19  18   C } # D for Dihedral angle
| 19> { D 20  19  18  17   C } # D for Dihedral angle
| 20> { D 19  18  17  16   C } # D for Dihedral angle
| 21> { D 18  17  16  20   C } # D for Dihedral angle
| 22> { D 17  16  20  19   C } # D for Dihedral angle
| 23> { D 15  12  16  20   C } # D for Dihedral angle
| 24> end
| 25> end
| 26>
| 27>
| 28> #%pal
| 29> #nprocs 8
| 30> #end
| 31>
| 32> * xyz 0 1
| 33> C  -21.048   26.222   46.251
| 34> C  -20.361   27.558   45.944
| 35> C  -20.329   28.222   47.341
| 36> C  -20.110   27.022   48.296
| 37> O  -20.473   25.807   47.535
| 38> H  -20.833   25.428   45.533
| 39> H  -19.344   27.382   45.576
| 40> H  -20.898   28.157   45.201
| 41> H  -19.543   28.978   47.434
| 42> H  -21.289   28.710   47.548
| 43> H  -20.733   27.082   49.195
| 44> H  -19.064   26.913   48.597
| 45> C  -23.353   26.472   45.026
| 46> H  -22.979   27.325   44.447
| 47> H  -23.189   25.560   44.438
| 48> O  -22.586   26.394   46.375
| 49> C  -24.885   26.644   45.216
| 50> C  -25.621   26.601   43.872
| 51> C  -25.670   25.080   43.590
| 52> C  -25.842   24.467   45.002
| 53> O  -25.439   25.512   45.966
| 54> H  -25.074   27.543   45.806
| 55> O  -27.055   27.176   44.030
| 56> H  -25.108   27.163   43.083
| 57> H  -26.483   24.801   42.911
| 58> H  -24.727   24.750   43.138
| 59> H  -25.217   23.579   45.152
| 60> H  -26.882   24.209   45.221
| 61> H  -27.587   26.628   44.815
| 62> *
| 63>
| 64>                          ****END OF INPUT****
 Total Charge           Charge          ....    0
 Multiplicity           Mult            ....    1
 Number of Electrons    NEL             ....  102
FINAL SINGLE POINT ENERGY      -652.829535096201
FINAL SINGLE POINT ENERGY      -652.853344238167
FINAL SINGLE POINT ENERGY      -652.857248514363
FINAL SINGLE POINT ENERGY      -652.857964351960
FINAL SINGLE POINT ENERGY      -652.858065523054
FINAL SINGLE POINT ENERGY      -652.858074521098
                    ***********************HURRAY********************

CARTESIAN COORDINATES (ANGSTROEM)
---------------------------------
  C    -21.086438   26.220840   46.161931
  C    -20.406028   27.565734   45.915347
  C    -20.494345   28.231769   47.310566
  C    -20.328189   27.036086   48.271308
  O    -20.615411   25.825536   47.456503
  H    -20.827088   25.423988   45.455396
  H    -19.361798   27.396064   45.627140
  H    -20.884187   28.158691   45.130325
  H    -19.728653   28.998857   47.459156
  H    -21.478299   28.692851   47.436859
  H    -21.022356   27.059047   49.114543
  H    -19.305153   26.926327   48.642984
  C    -23.210381   26.418626   44.957828
  H    -22.871298   27.284870   44.366108
  H    -22.994198   25.507949   44.376271
  O    -22.534449   26.358443   46.235803
  C    -24.706994   26.561427   45.222463
  C    -25.562097   26.597349   43.947831
  C    -25.720482   25.086343   43.630798
  C    -25.799711   24.442143   45.037239
  O    -25.253064   25.440434   45.987322
  H    -24.865666   27.454447   45.834208
  O    -26.844933   27.231068   44.204888
  H    -25.120162   27.166778   43.128668
  H    -26.614378   24.911011   43.027102
  H    -24.850585   24.721736   43.072451
  H    -25.216844   23.520002   45.115059
  H    -26.828270   24.231330   45.346170
  H    -27.190544   26.915255   45.066733

 Multiplicity           Mult            ....    1
 Number of Electrons    NEL             ....  102
 Basis Dimension        Dim             ....  149

ORBITAL ENERGIES
----------------

  NO   OCC          E(Eh)            E(eV)
   0   2.0000     -19.140475      -520.8388
   1   2.0000     -19.140218      -520.8318
   2   2.0000     -19.140178      -520.8307
   3   2.0000     -19.138606      -520.7879
   4   2.0000     -10.278951      -279.7045
   5   2.0000     -10.244826      -278.7759
   6   2.0000     -10.236469      -278.5485
   7   2.0000     -10.235964      -278.5347
   8   2.0000     -10.229563      -278.3606
   9   2.0000     -10.223148      -278.1860
  10   2.0000     -10.191059      -277.3128
  11   2.0000     -10.187561      -277.2176
  12   2.0000     -10.185919      -277.1730
  13   2.0000      -1.054033       -28.6817
  14   2.0000      -1.036946       -28.2167
  15   2.0000      -1.007363       -27.4117
  16   2.0000      -0.994251       -27.0549
  17   2.0000      -0.788373       -21.4527
  18   2.0000      -0.783799       -21.3283
  19   2.0000      -0.768983       -20.9251
  20   2.0000      -0.730789       -19.8858
  21   2.0000      -0.676294       -18.4029
  22   2.0000      -0.605588       -16.4789
  23   2.0000      -0.600711       -16.3462
  24   2.0000      -0.590348       -16.0642
  25   2.0000      -0.585497       -15.9322
  26   2.0000      -0.526046       -14.3144
  27   2.0000      -0.512786       -13.9536
  28   2.0000      -0.496073       -13.4988
  29   2.0000      -0.490671       -13.3518
  30   2.0000      -0.475952       -12.9513
  31   2.0000      -0.461279       -12.5520
  32   2.0000      -0.454031       -12.3548
  33   2.0000      -0.443254       -12.0616
  34   2.0000      -0.426727       -11.6118
  35   2.0000      -0.409176       -11.1342
  36   2.0000      -0.401150       -10.9158
  37   2.0000      -0.394448       -10.7335
  38   2.0000      -0.375081       -10.2065
  39   2.0000      -0.372913       -10.1475
  40   2.0000      -0.360785        -9.8175
  41   2.0000      -0.357592        -9.7306
  42   2.0000      -0.352919        -9.6034
  43   2.0000      -0.333709        -9.0807
  44   2.0000      -0.312735        -8.5099
  45   2.0000      -0.307334        -8.3630
  46   2.0000      -0.303912        -8.2699
  47   2.0000      -0.272636        -7.4188
  48   2.0000      -0.258495        -7.0340
  49   2.0000      -0.252464        -6.8699
  50   2.0000      -0.244161        -6.6440
  51   0.0000       0.064300         1.7497
  52   0.0000       0.080413         2.1881
  53   0.0000       0.086795         2.3618
  54   0.0000       0.095818         2.6073
  55   0.0000       0.105251         2.8640

MULLIKEN ATOMIC CHARGES
-----------------------
   0 C :    0.305547
   1 C :   -0.275425
   2 C :   -0.297180
   3 C :   -0.001234
   4 O :   -0.501649
   5 H :    0.135546
   6 H :    0.145927
   7 H :    0.141013
   8 H :    0.141853
   9 H :    0.160157
  10 H :    0.157809
  11 H :    0.140907
  12 C :    0.000140
  13 H :    0.120173
  14 H :    0.124569
  15 O :   -0.497179
  16 C :    0.069432
  17 C :    0.076934
  18 C :   -0.297701
  19 C :   -0.027222
  20 O :   -0.505553
  21 H :    0.167418
  22 O :   -0.603324
  23 H :    0.148893
  24 H :    0.164691
  25 H :    0.141308
  26 H :    0.151582
  27 H :    0.145468
  28 H :    0.367100
Sum of atomic charges:   -0.0000000

LOEWDIN ATOMIC CHARGES
----------------------
   0 C :    0.179380
   1 C :   -0.231335
   2 C :   -0.216515
   3 C :   -0.024667
   4 O :   -0.301954
   5 H :    0.094639
   6 H :    0.114442
   7 H :    0.112252
   8 H :    0.114290
   9 H :    0.118097
  10 H :    0.111304
  11 H :    0.102055
  12 C :   -0.043938
  13 H :    0.088553
  14 H :    0.090633
  15 O :   -0.319265
  16 C :    0.019938
  17 C :    0.035044
  18 C :   -0.241719
  19 C :   -0.037320
  20 O :   -0.316347
  21 H :    0.120587
  22 O :   -0.414633
  23 H :    0.113821
  24 H :    0.127324
  25 H :    0.111191
  26 H :    0.107115
  27 H :    0.102417
  28 H :    0.284609

  Mayer bond orders larger than 0.100000
B(  0-C ,  1-C ) :   0.9287 B(  0-C ,  4-O ) :   0.9398 B(  0-C ,  5-H ) :   0.9192
B(  0-C , 15-O ) :   0.8318 B(  1-C ,  2-C ) :   0.9533 B(  1-C ,  6-H ) :   0.9340
B(  1-C ,  7-H ) :   0.9344 B(  2-C ,  3-C ) :   0.9556 B(  2-C ,  8-H ) :   0.9451
B(  2-C ,  9-H ) :   0.9442 B(  3-C ,  4-O ) :   0.8355 B(  3-C , 10-H ) :   0.9338
B(  3-C , 11-H ) :   0.9397 B( 12-C , 13-H ) :   0.9024 B( 12-C , 14-H ) :   0.9122
B( 12-C , 15-O ) :   0.8501 B( 12-C , 16-C ) :   0.8999 B( 16-C , 17-C ) :   0.9012
B( 16-C , 20-O ) :   0.8734 B( 16-C , 21-H ) :   0.9238 B( 17-C , 18-C ) :   0.9112
B( 17-C , 22-O ) :   0.8941 B( 17-C , 23-H ) :   0.9328 B( 18-C , 19-C ) :   0.9397
B( 18-C , 24-H ) :   0.9371 B( 18-C , 25-H ) :   0.9343 B( 19-C , 20-O ) :   0.8507
B( 19-C , 26-H ) :   0.9337 B( 19-C , 27-H ) :   0.9378 B( 22-O , 28-H ) :   0.7928

FINAL SINGLE POINT ENERGY      -652.858076287964

DIPOLE MOMENT
-------------
                                X             Y             Z
Electronic contribution:     -2.84069      -1.76361       2.21271
Nuclear contribution   :      3.42070       2.09238      -3.13400
                        -----------------------------------------
Total Dipole Moment    :      0.58000       0.32877      -0.92129
                        -----------------------------------------
Magnitude (a.u.)       :      1.13722
Magnitude (Debye)      :      2.89058

Rotational constants in cm-1:     0.064645     0.011339     0.010804
Rotational constants in MHz :  1937.995810   339.932054   323.909175

                             ****ORCA TERMINATED NORMALLY****
TOTAL RUN TIME: 0 days 1 hours 45 minutes 2 seconds 252 msec
