                         Program Version 4.2.0 -  RELEASE  -
|  1> # Test redundant internal optimization
|  2> #
|  3> ! RKS B3LYP  Opt TightSCF SmallPrint
|  4>
|  5> %basis
|  6>         Basis "6-31G"
|  7> end
|  8>
|  9> %geom
| 10> Constraints
| 11> { D 4  0  15  12  0.0   C } # D for Dihedral angle
| 12> { D 0  15  12  16  120.0   C } # D for Dihedral angle
| 13> { D 0  4  3  2   C } # D for Dihedral angle
| 14> { D 4  3  2  1   C } # D for Dihedral angle
| 15> { D 3  2  1  0   C } # D for Dihedral angle
| 16> { D 2  1  0  4   C } # D for Dihedral angle
| 17> { D 1  0  4  3   C } # D for Dihedral angle
| 18> { D 16  20  19  18   C } # D for Dihedral angle
| 19> { D 20  19  18  17   C } # D for Dihedral angle
| 20> { D 19  18  17  16   C } # D for Dihedral angle
| 21> { D 18  17  16  20   C } # D for Dihedral angle
| 22> { D 17  16  20  19   C } # D for Dihedral angle
| 23> { D 15  12  16  20   C } # D for Dihedral angle
| 24> end
| 25> end
| 26>
| 27>
| 28> #%pal
| 29> #nprocs 8
| 30> #end
| 31>
| 32> * xyz 0 1
| 33> C  -21.048   26.222   46.251
| 34> C  -20.361   27.558   45.944
| 35> C  -20.329   28.222   47.341
| 36> C  -20.110   27.022   48.296
| 37> O  -20.473   25.807   47.535
| 38> H  -20.833   25.428   45.533
| 39> H  -19.344   27.382   45.576
| 40> H  -20.898   28.157   45.201
| 41> H  -19.543   28.978   47.434
| 42> H  -21.289   28.710   47.548
| 43> H  -20.733   27.082   49.195
| 44> H  -19.064   26.913   48.597
| 45> C  -23.172   26.101   47.783
| 46> H  -23.891   25.276   47.711
| 47> H  -22.375   25.801   48.476
| 48> O  -22.586   26.394   46.375
| 49> C  -23.897   27.329   48.400
| 50> C  -22.976   28.553   48.449
| 51> C  -23.042   29.054   46.986
| 52> C  -24.503   28.744   46.574
| 53> O  -25.011   27.749   47.544
| 54> H  -24.324   27.046   49.364
| 55> O  -23.556   29.618   49.419
| 56> H  -21.956   28.313   48.769
| 57> H  -22.798   30.117   46.890
| 58> H  -22.337   28.491   46.363
| 59> H  -24.575   28.329   45.563
| 60> H  -25.152   29.622   46.643
| 61> H  -24.577   29.875   49.117
| 62> *
| 63>
| 64>                          ****END OF INPUT****
 Total Charge           Charge          ....    0
 Multiplicity           Mult            ....    1
 Number of Electrons    NEL             ....  102
FINAL SINGLE POINT ENERGY      -652.781774117749
FINAL SINGLE POINT ENERGY      -652.826294777949
FINAL SINGLE POINT ENERGY      -652.844800224860
FINAL SINGLE POINT ENERGY      -652.849124011890
FINAL SINGLE POINT ENERGY      -652.849742101471
FINAL SINGLE POINT ENERGY      -652.849916228561
FINAL SINGLE POINT ENERGY      -652.849938082940
FINAL SINGLE POINT ENERGY      -652.849938402610
                    ***********************HURRAY********************

CARTESIAN COORDINATES (ANGSTROEM)
---------------------------------
  C    -21.032909   26.138033   46.429112
  C    -20.227118   27.313746   45.861019
  C    -19.943797   28.162077   47.135928
  C    -19.763963   27.077387   48.225581
  O    -20.372780   25.838794   47.671545
  H    -20.897432   25.239101   45.818957
  H    -19.296643   26.919130   45.441882
  H    -20.766255   27.859062   45.082340
  H    -19.042858   28.774693   47.027781
  H    -20.769002   28.829585   47.370044
  H    -20.255605   27.321906   49.171977
  H    -18.714306   26.842927   48.420621
  C    -23.201870   26.137984   47.745674
  H    -23.920700   25.327384   47.583126
  H    -22.492171   25.818613   48.517751
  O    -22.496292   26.291593   46.474014
  C    -24.009557   27.335817   48.263262
  C    -23.286536   28.655782   48.572685
  C    -23.256896   29.344010   47.177026
  C    -24.607908   28.895732   46.558102
  O    -25.062910   27.728750   47.328444
  H    -24.513691   26.976668   49.169930
  O    -24.040220   29.437693   49.541470
  H    -22.302448   28.525209   49.021983
  H    -23.162497   30.428551   47.274838
  H    -22.443131   28.954247   46.570283
  H    -24.503886   28.607340   45.508375
  H    -25.385674   29.663744   46.638573
  H    -24.983945   29.447441   49.274676

 Multiplicity           Mult            ....    1
 Number of Electrons    NEL             ....  102
 Basis Dimension        Dim             ....  149

ORBITAL ENERGIES
----------------

  NO   OCC          E(Eh)            E(eV)
   0   2.0000     -19.159053      -521.3443
   1   2.0000     -19.143308      -520.9159
   2   2.0000     -19.138794      -520.7930
   3   2.0000     -19.137453      -520.7566
   4   2.0000     -10.283793      -279.8362
   5   2.0000     -10.242242      -278.7056
   6   2.0000     -10.239441      -278.6293
   7   2.0000     -10.233740      -278.4742
   8   2.0000     -10.226090      -278.2661
   9   2.0000     -10.225184      -278.2414
  10   2.0000     -10.197332      -277.4835
  11   2.0000     -10.195866      -277.4436
  12   2.0000     -10.184168      -277.1253
  13   2.0000      -1.058521       -28.8038
  14   2.0000      -1.036547       -28.2059
  15   2.0000      -1.006378       -27.3849
  16   2.0000      -0.994385       -27.0586
  17   2.0000      -0.796766       -21.6811
  18   2.0000      -0.779193       -21.2029
  19   2.0000      -0.767886       -20.8952
  20   2.0000      -0.740407       -20.1475
  21   2.0000      -0.676300       -18.4031
  22   2.0000      -0.614196       -16.7131
  23   2.0000      -0.602737       -16.4013
  24   2.0000      -0.601633       -16.3713
  25   2.0000      -0.569760       -15.5040
  26   2.0000      -0.523225       -14.2377
  27   2.0000      -0.515716       -14.0334
  28   2.0000      -0.504506       -13.7283
  29   2.0000      -0.494158       -13.4467
  30   2.0000      -0.470712       -12.8087
  31   2.0000      -0.461371       -12.5545
  32   2.0000      -0.455440       -12.3931
  33   2.0000      -0.437810       -11.9134
  34   2.0000      -0.425396       -11.5756
  35   2.0000      -0.417647       -11.3648
  36   2.0000      -0.406370       -11.0579
  37   2.0000      -0.389603       -10.6016
  38   2.0000      -0.379558       -10.3283
  39   2.0000      -0.372439       -10.1346
  40   2.0000      -0.367032        -9.9874
  41   2.0000      -0.360765        -9.8169
  42   2.0000      -0.352437        -9.5903
  43   2.0000      -0.340365        -9.2618
  44   2.0000      -0.327317        -8.9068
  45   2.0000      -0.308016        -8.3816
  46   2.0000      -0.303485        -8.2583
  47   2.0000      -0.274364        -7.4658
  48   2.0000      -0.268616        -7.3094
  49   2.0000      -0.260179        -7.0798
  50   2.0000      -0.234202        -6.3730
  51   0.0000       0.061862         1.6834
  52   0.0000       0.072513         1.9732
  53   0.0000       0.086135         2.3438
  54   0.0000       0.095558         2.6003
  55   0.0000       0.101831         2.7710

MULLIKEN ATOMIC CHARGES
-----------------------
   0 C :    0.314075
   1 C :   -0.271238
   2 C :   -0.320483
   3 C :   -0.022446
   4 O :   -0.511957
   5 H :    0.159183
   6 H :    0.154430
   7 H :    0.156404
   8 H :    0.149562
   9 H :    0.159284
  10 H :    0.150009
  11 H :    0.155797
  12 C :   -0.017507
  13 H :    0.158788
  14 H :    0.156928
  15 O :   -0.538128
  16 C :    0.073229
  17 C :    0.061125
  18 C :   -0.298596
  19 C :   -0.025477
  20 O :   -0.523042
  21 H :    0.154843
  22 O :   -0.603538
  23 H :    0.148282
  24 H :    0.154052
  25 H :    0.165804
  26 H :    0.157250
  27 H :    0.138337
  28 H :    0.365028
Sum of atomic charges:   -0.0000000

LOEWDIN ATOMIC CHARGES
----------------------
   0 C :    0.182477
   1 C :   -0.221161
   2 C :   -0.226103
   3 C :   -0.033101
   4 O :   -0.313252
   5 H :    0.101801
   6 H :    0.121274
   7 H :    0.122270
   8 H :    0.118615
   9 H :    0.116220
  10 H :    0.102010
  11 H :    0.109255
  12 C :   -0.043243
  13 H :    0.114873
  14 H :    0.113394
  15 O :   -0.343034
  16 C :    0.007765
  17 C :    0.034210
  18 C :   -0.246719
  19 C :   -0.034488
  20 O :   -0.327394
  21 H :    0.116841
  22 O :   -0.415489
  23 H :    0.110191
  24 H :    0.121835
  25 H :    0.121601
  26 H :    0.109690
  27 H :    0.096445
  28 H :    0.283215

  Mayer bond orders larger than 0.100000
B(  0-C ,  1-C ) :   0.9224 B(  0-C ,  4-O ) :   0.9022 B(  0-C ,  5-H ) :   0.9321
B(  0-C , 15-O ) :   0.8584 B(  1-C ,  2-C ) :   0.9568 B(  1-C ,  6-H ) :   0.9341
B(  1-C ,  7-H ) :   0.9340 B(  2-C ,  3-C ) :   0.9509 B(  2-C ,  8-H ) :   0.9444
B(  2-C ,  9-H ) :   0.9222 B(  3-C ,  4-O ) :   0.8279 B(  3-C , 10-H ) :   0.9278
B(  3-C , 11-H ) :   0.9388 B( 12-C , 13-H ) :   0.9280 B( 12-C , 14-H ) :   0.9001
B( 12-C , 15-O ) :   0.8541 B( 12-C , 16-C ) :   0.8956 B( 16-C , 17-C ) :   0.9079
B( 16-C , 20-O ) :   0.8606 B( 16-C , 21-H ) :   0.9160 B( 17-C , 18-C ) :   0.9204
B( 17-C , 22-O ) :   0.8860 B( 17-C , 23-H ) :   0.9248 B( 18-C , 19-C ) :   0.9361
B( 18-C , 24-H ) :   0.9374 B( 18-C , 25-H ) :   0.9060 B( 19-C , 20-O ) :   0.8431
B( 19-C , 26-H ) :   0.9327 B( 19-C , 27-H ) :   0.9362 B( 22-O , 28-H ) :   0.7940

FINAL SINGLE POINT ENERGY      -652.849935697605

DIPOLE MOMENT
-------------
                                X             Y             Z
Electronic contribution:     -4.12389      -3.53107       1.27392
Nuclear contribution   :      5.06544       4.13622      -1.61945
                        -----------------------------------------
Total Dipole Moment    :      0.94155       0.60515      -0.34553
                        -----------------------------------------
Magnitude (a.u.)       :      1.17138
Magnitude (Debye)      :      2.97741

Rotational constants in cm-1:     0.043454     0.018275     0.017005
Rotational constants in MHz :  1302.713837   547.861379   509.804264

                             ****ORCA TERMINATED NORMALLY****
TOTAL RUN TIME: 0 days 0 hours 31 minutes 5 seconds 401 msec
