                         Program Version 4.2.0 -  RELEASE  -
|  1> # Test redundant internal optimization
|  2> #
|  3> ! RKS B3LYP  Opt TightSCF SmallPrint
|  4>
|  5> %basis
|  6>         Basis "6-31G"
|  7> end
|  8>
|  9> %geom
| 10> Constraints
| 11> { D 4  0  15  12  345.0   C } # D for Dihedral angle
| 12> { D 0  15  12  16  225.0   C } # D for Dihedral angle
| 13> { D 0  4  3  2   C } # D for Dihedral angle
| 14> { D 4  3  2  1   C } # D for Dihedral angle
| 15> { D 3  2  1  0   C } # D for Dihedral angle
| 16> { D 2  1  0  4   C } # D for Dihedral angle
| 17> { D 1  0  4  3   C } # D for Dihedral angle
| 18> { D 16  20  19  18   C } # D for Dihedral angle
| 19> { D 20  19  18  17   C } # D for Dihedral angle
| 20> { D 19  18  17  16   C } # D for Dihedral angle
| 21> { D 18  17  16  20   C } # D for Dihedral angle
| 22> { D 17  16  20  19   C } # D for Dihedral angle
| 23> { D 15  12  16  20   C } # D for Dihedral angle
| 24> end
| 25> end
| 26>
| 27>
| 28> #%pal
| 29> #nprocs 8
| 30> #end
| 31>
| 32> * xyz 0 1
| 33> C  -21.048   26.222   46.251
| 34> C  -20.361   27.558   45.944
| 35> C  -20.329   28.222   47.341
| 36> C  -20.110   27.022   48.296
| 37> O  -20.473   25.807   47.535
| 38> H  -20.833   25.428   45.533
| 39> H  -19.344   27.382   45.576
| 40> H  -20.898   28.157   45.201
| 41> H  -19.543   28.978   47.434
| 42> H  -21.289   28.710   47.548
| 43> H  -20.733   27.082   49.195
| 44> H  -19.064   26.913   48.597
| 45> C  -23.221   25.764   47.645
| 46> H  -22.499   25.081   48.110
| 47> H  -23.474   26.544   48.375
| 48> O  -22.586   26.394   46.375
| 49> C  -24.518   24.967   47.336
| 50> C  -25.179   24.459   48.622
| 51> C  -25.897   25.732   49.130
| 52> C  -26.343   26.430   47.821
| 53> O  -25.528   25.845   46.735
| 54> H  -24.294   24.188   46.604
| 55> H  -25.905   23.673   48.388
| 56> O  -24.160   23.893   49.649
| 57> H  -26.741   25.508   49.791
| 58> H  -25.195   26.364   49.686
| 59> H  -26.181   27.513   47.847
| 60> H  -27.391   26.234   47.579
| 61> H  -23.423   24.663   49.900
| 62> *
| 63>
| 64>                          ****END OF INPUT****
 Total Charge           Charge          ....    0
 Multiplicity           Mult            ....    1
 Number of Electrons    NEL             ....  102
FINAL SINGLE POINT ENERGY      -652.827467468665
FINAL SINGLE POINT ENERGY      -652.850423785723
FINAL SINGLE POINT ENERGY      -652.854631604408
FINAL SINGLE POINT ENERGY      -652.855309897474
FINAL SINGLE POINT ENERGY      -652.855429293763
FINAL SINGLE POINT ENERGY      -652.855458687377
FINAL SINGLE POINT ENERGY      -652.855462547399
                    ***********************HURRAY********************

CARTESIAN COORDINATES (ANGSTROEM)
---------------------------------
  C    -21.091191   26.189036   46.329058
  C    -20.503653   27.545506   45.941001
  C    -20.329838   28.219041   47.320243
  C    -19.948631   27.043028   48.245060
  O    -20.360902   25.808271   47.517326
  H    -20.931585   25.384543   45.606697
  H    -19.536507   27.394856   45.447302
  H    -21.166477   28.098340   45.272322
  H    -19.566998   29.003732   47.313429
  H    -21.278382   28.667142   47.632417
  H    -20.458953   27.067932   49.211953
  H    -18.870752   26.958350   48.409551
  C    -23.124738   25.801211   47.745345
  H    -22.427858   25.112627   48.234954
  H    -23.334753   26.636735   48.428927
  O    -22.527914   26.343074   46.533849
  C    -24.408310   25.060141   47.379962
  C    -25.155561   24.481086   48.593871
  C    -25.964527   25.717459   49.092372
  C    -26.322789   26.440292   47.775507
  O    -25.398033   25.921448   46.737422
  H    -24.160104   24.291156   46.642990
  H    -25.834924   23.694451   48.258539
  O    -24.330027   23.840711   49.595194
  H    -26.843232   25.428995   49.675043
  H    -25.322935   26.339437   49.731438
  H    -26.212522   27.527923   47.840979
  H    -27.339740   26.210415   47.442507
  H    -23.808166   24.506061   50.088742

 Multiplicity           Mult            ....    1
 Number of Electrons    NEL             ....  102
 Basis Dimension        Dim             ....  149

ORBITAL ENERGIES
----------------

  NO   OCC          E(Eh)            E(eV)
   0   2.0000     -19.150893      -521.1223
   1   2.0000     -19.147087      -521.0187
   2   2.0000     -19.134305      -520.6709
   3   2.0000     -19.131624      -520.5980
   4   2.0000     -10.277379      -279.6617
   5   2.0000     -10.241651      -278.6895
   6   2.0000     -10.233285      -278.4619
   7   2.0000     -10.226936      -278.2891
   8   2.0000     -10.225245      -278.2431
   9   2.0000     -10.223952      -278.2079
  10   2.0000     -10.192527      -277.3528
  11   2.0000     -10.189998      -277.2839
  12   2.0000     -10.184162      -277.1251
  13   2.0000      -1.053982       -28.6803
  14   2.0000      -1.030423       -28.0392
  15   2.0000      -1.011699       -27.5297
  16   2.0000      -0.988914       -26.9097
  17   2.0000      -0.791155       -21.5284
  18   2.0000      -0.778798       -21.1922
  19   2.0000      -0.765431       -20.8284
  20   2.0000      -0.732368       -19.9287
  21   2.0000      -0.676452       -18.4072
  22   2.0000      -0.607817       -16.5396
  23   2.0000      -0.603600       -16.4248
  24   2.0000      -0.593257       -16.1433
  25   2.0000      -0.567123       -15.4322
  26   2.0000      -0.527315       -14.3490
  27   2.0000      -0.506688       -13.7877
  28   2.0000      -0.497765       -13.5449
  29   2.0000      -0.497276       -13.5316
  30   2.0000      -0.469623       -12.7791
  31   2.0000      -0.454986       -12.3808
  32   2.0000      -0.446494       -12.1497
  33   2.0000      -0.427591       -11.6353
  34   2.0000      -0.423343       -11.5197
  35   2.0000      -0.412546       -11.2259
  36   2.0000      -0.411423       -11.1954
  37   2.0000      -0.397737       -10.8230
  38   2.0000      -0.375002       -10.2043
  39   2.0000      -0.369223       -10.0471
  40   2.0000      -0.360192        -9.8013
  41   2.0000      -0.350508        -9.5378
  42   2.0000      -0.349006        -9.4969
  43   2.0000      -0.339205        -9.2302
  44   2.0000      -0.324714        -8.8359
  45   2.0000      -0.310426        -8.4471
  46   2.0000      -0.299076        -8.1383
  47   2.0000      -0.268511        -7.3065
  48   2.0000      -0.264253        -7.1907
  49   2.0000      -0.252920        -6.8823
  50   2.0000      -0.232132        -6.3166
  51   0.0000       0.051711         1.4071
  52   0.0000       0.074336         2.0228
  53   0.0000       0.089381         2.4322
  54   0.0000       0.095429         2.5967
  55   0.0000       0.106638         2.9018

MULLIKEN ATOMIC CHARGES
-----------------------
   0 C :    0.295114
   1 C :   -0.256067
   2 C :   -0.306622
   3 C :   -0.013728
   4 O :   -0.513324
   5 H :    0.154992
   6 H :    0.142853
   7 H :    0.166757
   8 H :    0.146323
   9 H :    0.158106
  10 H :    0.138699
  11 H :    0.151885
  12 C :   -0.023761
  13 H :    0.165683
  14 H :    0.114130
  15 O :   -0.524498
  16 C :    0.096746
  17 C :    0.083922
  18 C :   -0.325304
  19 C :   -0.011063
  20 O :   -0.504659
  21 H :    0.158826
  22 H :    0.167888
  23 O :   -0.598610
  24 H :    0.157793
  25 H :    0.130957
  26 H :    0.145611
  27 H :    0.146908
  28 H :    0.354441
Sum of atomic charges:   -0.0000000

LOEWDIN ATOMIC CHARGES
----------------------
   0 C :    0.181456
   1 C :   -0.217642
   2 C :   -0.218602
   3 C :   -0.031652
   4 O :   -0.321128
   5 H :    0.103032
   6 H :    0.112802
   7 H :    0.129012
   8 H :    0.116736
   9 H :    0.116504
  10 H :    0.100208
  11 H :    0.107506
  12 C :   -0.055398
  13 H :    0.116161
  14 H :    0.086324
  15 O :   -0.330088
  16 C :    0.018374
  17 C :    0.034045
  18 C :   -0.242595
  19 C :   -0.030940
  20 O :   -0.314531
  21 H :    0.118038
  22 H :    0.119618
  23 O :   -0.406305
  24 H :    0.122166
  25 H :    0.102495
  26 H :    0.102878
  27 H :    0.104671
  28 H :    0.276859

  Mayer bond orders larger than 0.100000
B(  0-C ,  1-C ) :   0.9371 B(  0-C ,  4-O ) :   0.9019 B(  0-C ,  5-H ) :   0.9257
B(  0-C , 15-O ) :   0.8516 B(  1-C ,  2-C ) :   0.9525 B(  1-C ,  6-H ) :   0.9363
B(  1-C ,  7-H ) :   0.9346 B(  2-C ,  3-C ) :   0.9552 B(  2-C ,  8-H ) :   0.9447
B(  2-C ,  9-H ) :   0.9451 B(  3-C ,  4-O ) :   0.8302 B(  3-C , 10-H ) :   0.9356
B(  3-C , 11-H ) :   0.9403 B( 12-C , 13-H ) :   0.8928 B( 12-C , 14-H ) :   0.9263
B( 12-C , 15-O ) :   0.8404 B( 12-C , 16-C ) :   0.9032 B( 16-C , 17-C ) :   0.8728
B( 16-C , 20-O ) :   0.8674 B( 16-C , 21-H ) :   0.9306 B( 17-C , 18-C ) :   0.9204
B( 17-C , 22-H ) :   0.9332 B( 17-C , 23-O ) :   0.8976 B( 18-C , 19-C ) :   0.9385
B( 18-C , 24-H ) :   0.9416 B( 18-C , 25-H ) :   0.9419 B( 19-C , 20-O ) :   0.8524
B( 19-C , 26-H ) :   0.9310 B( 19-C , 27-H ) :   0.9382 B( 23-O , 28-H ) :   0.7982

FINAL SINGLE POINT ENERGY      -652.855463804391

DIPOLE MOMENT
-------------
                                X             Y             Z
Electronic contribution:     -1.09229      -4.56339      -2.25936
Nuclear contribution   :      1.41305       5.66231       3.11826
                        -----------------------------------------
Total Dipole Moment    :      0.32076       1.09892       0.85891
                        -----------------------------------------
Magnitude (a.u.)       :      1.43116
Magnitude (Debye)      :      3.63773

Rotational constants in cm-1:     0.050679     0.013535     0.012284
Rotational constants in MHz :  1519.313064   405.768773   368.269688

                             ****ORCA TERMINATED NORMALLY****
TOTAL RUN TIME: 0 days 0 hours 22 minutes 1 seconds 979 msec
