                         Program Version 4.2.0 -  RELEASE  -
|  1> # Test redundant internal optimization
|  2> #
|  3> ! RKS B3LYP  Opt TightSCF SmallPrint
|  4>
|  5> %basis
|  6>         Basis "6-31G"
|  7> end
|  8>
|  9> %geom
| 10> Constraints
| 11> { D 4  0  15  12  240.0   C } # D for Dihedral angle
| 12> { D 0  15  12  16  255.0   C } # D for Dihedral angle
| 13> { D 0  4  3  2   C } # D for Dihedral angle
| 14> { D 4  3  2  1   C } # D for Dihedral angle
| 15> { D 3  2  1  0   C } # D for Dihedral angle
| 16> { D 2  1  0  4   C } # D for Dihedral angle
| 17> { D 1  0  4  3   C } # D for Dihedral angle
| 18> { D 16  20  19  18   C } # D for Dihedral angle
| 19> { D 20  19  18  17   C } # D for Dihedral angle
| 20> { D 19  18  17  16   C } # D for Dihedral angle
| 21> { D 18  17  16  20   C } # D for Dihedral angle
| 22> { D 17  16  20  19   C } # D for Dihedral angle
| 23> { D 15  12  16  20   C } # D for Dihedral angle
| 24> end
| 25> end
| 26>
| 27>
| 28> #%pal
| 29> #nprocs 8
| 30> #end
| 31>
| 32> * xyz 0 1
| 33> C  -21.048   26.222   46.251
| 34> C  -20.361   27.558   45.944
| 35> C  -20.329   28.222   47.341
| 36> C  -20.110   27.022   48.296
| 37> O  -20.473   25.807   47.535
| 38> H  -20.833   25.428   45.533
| 39> H  -19.344   27.382   45.576
| 40> H  -20.898   28.157   45.201
| 41> H  -19.543   28.978   47.434
| 42> H  -21.289   28.710   47.548
| 43> H  -20.733   27.082   49.195
| 44> H  -19.064   26.913   48.597
| 45> C  -23.430   25.483   45.442
| 46> H  -22.795   24.678   45.051
| 47> H  -24.259   25.026   45.998
| 48> O  -22.586   26.394   46.375
| 49> C  -24.037   26.254   44.238
| 50> C  -22.941   26.785   43.307
| 51> C  -22.569   25.516   42.504
| 52> C  -23.925   24.779   42.363
| 53> O  -24.822   25.348   43.392
| 54> H  -24.723   27.017   44.611
| 55> H  -23.352   27.555   42.644
| 56> O  -21.732   27.391   44.071
| 57> H  -22.116   25.744   41.535
| 58> H  -21.856   24.907   43.073
| 59> H  -23.835   23.700   42.524
| 60> H  -24.396   24.954   41.392
| 61> H  -21.305   26.637   44.741
| 62> *
| 63>
| 64>                          ****END OF INPUT****
 Total Charge           Charge          ....    0
 Multiplicity           Mult            ....    1
 Number of Electrons    NEL             ....  102
FINAL SINGLE POINT ENERGY      -652.770716844087
FINAL SINGLE POINT ENERGY      -652.826553370562
FINAL SINGLE POINT ENERGY      -652.846409164804
FINAL SINGLE POINT ENERGY      -652.850088652050
FINAL SINGLE POINT ENERGY      -652.850834886305
FINAL SINGLE POINT ENERGY      -652.851023123445
FINAL SINGLE POINT ENERGY      -652.851044943986
FINAL SINGLE POINT ENERGY      -652.851051556475
                    ***********************HURRAY********************

CARTESIAN COORDINATES (ANGSTROEM)
---------------------------------
  C    -20.957070   26.178164   46.304962
  C    -20.276394   27.533187   46.095097
  C    -20.377787   28.169697   47.508206
  C    -20.215722   26.946406   48.437746
  O    -20.491129   25.756439   47.600392
  H    -20.692935   25.383516   45.596362
  H    -19.225851   27.378957   45.817962
  H    -20.772387   28.146134   45.344086
  H    -19.613625   28.932910   47.680168
  H    -21.364845   28.624029   47.631509
  H    -20.914576   26.949726   49.278174
  H    -19.195095   26.834119   48.816633
  C    -23.279973   25.609263   45.477055
  H    -22.758448   24.701232   45.132486
  H    -24.111765   25.281738   46.106186
  O    -22.389489   26.370279   46.338836
  C    -23.908972   26.313160   44.251572
  C    -23.011636   26.818754   43.102948
  C    -22.661209   25.488936   42.351375
  C    -23.965372   24.674938   42.509309
  O    -24.731097   25.285461   43.617307
  H    -24.584063   27.102700   44.592004
  H    -23.626852   27.453950   42.459333
  O    -21.864495   27.628552   43.419203
  H    -22.390329   25.665400   41.307682
  H    -21.813775   24.998265   42.848372
  H    -23.786794   23.619515   42.739926
  H    -24.595236   24.734682   41.616381
  H    -21.127080   27.068891   43.730730

 Multiplicity           Mult            ....    1
 Number of Electrons    NEL             ....  102
 Basis Dimension        Dim             ....  149

ORBITAL ENERGIES
----------------

  NO   OCC          E(Eh)            E(eV)
   0   2.0000     -19.154476      -521.2198
   1   2.0000     -19.147510      -521.0302
   2   2.0000     -19.139793      -520.8202
   3   2.0000     -19.137204      -520.7498
   4   2.0000     -10.283828      -279.8372
   5   2.0000     -10.249885      -278.9135
   6   2.0000     -10.237418      -278.5743
   7   2.0000     -10.235716      -278.5280
   8   2.0000     -10.232485      -278.4401
   9   2.0000     -10.221829      -278.1501
  10   2.0000     -10.201132      -277.5869
  11   2.0000     -10.182588      -277.0823
  12   2.0000     -10.181266      -277.0463
  13   2.0000      -1.052120       -28.6296
  14   2.0000      -1.040905       -28.3245
  15   2.0000      -1.026067       -27.9207
  16   2.0000      -0.992867       -27.0173
  17   2.0000      -0.786818       -21.4104
  18   2.0000      -0.782876       -21.3031
  19   2.0000      -0.767760       -20.8918
  20   2.0000      -0.732463       -19.9313
  21   2.0000      -0.682898       -18.5826
  22   2.0000      -0.617991       -16.8164
  23   2.0000      -0.598397       -16.2832
  24   2.0000      -0.593856       -16.1596
  25   2.0000      -0.581498       -15.8234
  26   2.0000      -0.531594       -14.4654
  27   2.0000      -0.521885       -14.2012
  28   2.0000      -0.498912       -13.5761
  29   2.0000      -0.488655       -13.2970
  30   2.0000      -0.467483       -12.7209
  31   2.0000      -0.456644       -12.4259
  32   2.0000      -0.444948       -12.1077
  33   2.0000      -0.438643       -11.9361
  34   2.0000      -0.432789       -11.7768
  35   2.0000      -0.420152       -11.4329
  36   2.0000      -0.415518       -11.3068
  37   2.0000      -0.402353       -10.9486
  38   2.0000      -0.378186       -10.2910
  39   2.0000      -0.373441       -10.1618
  40   2.0000      -0.359144        -9.7728
  41   2.0000      -0.354628        -9.6499
  42   2.0000      -0.347542        -9.4571
  43   2.0000      -0.334163        -9.0930
  44   2.0000      -0.322715        -8.7815
  45   2.0000      -0.313509        -8.5310
  46   2.0000      -0.300987        -8.1903
  47   2.0000      -0.273556        -7.4438
  48   2.0000      -0.270242        -7.3536
  49   2.0000      -0.257718        -7.0129
  50   2.0000      -0.236570        -6.4374
  51   0.0000       0.041776         1.1368
  52   0.0000       0.070084         1.9071
  53   0.0000       0.082129         2.2348
  54   0.0000       0.087902         2.3919
  55   0.0000       0.101975         2.7749

MULLIKEN ATOMIC CHARGES
-----------------------
   0 C :    0.279807
   1 C :   -0.293820
   2 C :   -0.300638
   3 C :   -0.000183
   4 O :   -0.502381
   5 H :    0.124988
   6 H :    0.136718
   7 H :    0.183041
   8 H :    0.141078
   9 H :    0.167673
  10 H :    0.152779
  11 H :    0.138763
  12 C :   -0.009023
  13 H :    0.118670
  14 H :    0.173945
  15 O :   -0.518001
  16 C :    0.076918
  17 C :    0.093918
  18 C :   -0.329742
  19 C :   -0.014509
  20 O :   -0.517435
  21 H :    0.162381
  22 H :    0.168434
  23 O :   -0.595609
  24 H :    0.160631
  25 H :    0.132980
  26 H :    0.149079
  27 H :    0.155101
  28 H :    0.364436
Sum of atomic charges:   -0.0000000

LOEWDIN ATOMIC CHARGES
----------------------
   0 C :    0.170971
   1 C :   -0.241347
   2 C :   -0.213361
   3 C :   -0.026568
   4 O :   -0.314848
   5 H :    0.088215
   6 H :    0.109046
   7 H :    0.132425
   8 H :    0.114042
   9 H :    0.121701
  10 H :    0.108176
  11 H :    0.100791
  12 C :   -0.039751
  13 H :    0.090266
  14 H :    0.123249
  15 O :   -0.333800
  16 C :    0.013427
  17 C :    0.034819
  18 C :   -0.242800
  19 C :   -0.031946
  20 O :   -0.317659
  21 H :    0.116690
  22 H :    0.118600
  23 O :   -0.397200
  24 H :    0.124444
  25 H :    0.102505
  26 H :    0.104268
  27 H :    0.108199
  28 H :    0.277448

  Mayer bond orders larger than 0.100000
B(  0-C ,  1-C ) :   0.9344 B(  0-C ,  4-O ) :   0.9349 B(  0-C ,  5-H ) :   0.9167
B(  0-C , 15-O ) :   0.8451 B(  1-C ,  2-C ) :   0.9541 B(  1-C ,  6-H ) :   0.9354
B(  1-C ,  7-H ) :   0.9054 B(  2-C ,  3-C ) :   0.9543 B(  2-C ,  8-H ) :   0.9450
B(  2-C ,  9-H ) :   0.9430 B(  3-C ,  4-O ) :   0.8347 B(  3-C , 10-H ) :   0.9350
B(  3-C , 11-H ) :   0.9401 B( 12-C , 13-H ) :   0.9247 B( 12-C , 14-H ) :   0.9308
B( 12-C , 15-O ) :   0.8443 B( 12-C , 16-C ) :   0.8866 B( 16-C , 17-C ) :   0.8808
B( 16-C , 20-O ) :   0.8284 B( 16-C , 21-H ) :   0.9308 B( 17-C , 18-C ) :   0.9258
B( 17-C , 22-H ) :   0.9306 B( 17-C , 23-O ) :   0.9028 B( 18-C , 19-C ) :   0.9402
B( 18-C , 24-H ) :   0.9407 B( 18-C , 25-H ) :   0.9405 B( 19-C , 20-O ) :   0.8370
B( 19-C , 26-H ) :   0.9313 B( 19-C , 27-H ) :   0.9374 B( 23-O , 28-H ) :   0.7785

FINAL SINGLE POINT ENERGY      -652.851051837902

DIPOLE MOMENT
-------------
                                X             Y             Z
Electronic contribution:     -3.00171      -1.04071       0.84254
Nuclear contribution   :      3.72122       0.98866      -1.63539
                        -----------------------------------------
Total Dipole Moment    :      0.71952      -0.05206      -0.79285
                        -----------------------------------------
Magnitude (a.u.)       :      1.07193
Magnitude (Debye)      :      2.72462

Rotational constants in cm-1:     0.058449     0.013963     0.012715
Rotational constants in MHz :  1752.248379   418.592576   381.172351

                             ****ORCA TERMINATED NORMALLY****
TOTAL RUN TIME: 0 days 1 hours 31 minutes 29 seconds 571 msec
