                         Program Version 4.2.0 -  RELEASE  -
|  1> # Test redundant internal optimization
|  2> #
|  3> ! RKS B3LYP  Opt TightSCF SmallPrint
|  4>
|  5> %basis
|  6>         Basis "6-31G"
|  7> end
|  8>
|  9> %geom
| 10> Constraints
| 11> { D 4  0  15  12  240.0   C } # D for Dihedral angle
| 12> { D 0  15  12  16  210.0   C } # D for Dihedral angle
| 13> { D 0  4  3  2   C } # D for Dihedral angle
| 14> { D 4  3  2  1   C } # D for Dihedral angle
| 15> { D 3  2  1  0   C } # D for Dihedral angle
| 16> { D 2  1  0  4   C } # D for Dihedral angle
| 17> { D 1  0  4  3   C } # D for Dihedral angle
| 18> { D 16  20  19  18   C } # D for Dihedral angle
| 19> { D 20  19  18  17   C } # D for Dihedral angle
| 20> { D 19  18  17  16   C } # D for Dihedral angle
| 21> { D 18  17  16  20   C } # D for Dihedral angle
| 22> { D 17  16  20  19   C } # D for Dihedral angle
| 23> { D 15  12  16  20   C } # D for Dihedral angle
| 24> end
| 25> end
| 26>
| 27>
| 28> #%pal
| 29> #nprocs 8
| 30> #end
| 31>
| 32> * xyz 0 1
| 33> C  -21.048   26.222   46.251
| 34> C  -20.361   27.558   45.944
| 35> C  -20.329   28.222   47.341
| 36> C  -20.110   27.022   48.296
| 37> O  -20.473   25.807   47.535
| 38> H  -20.833   25.428   45.533
| 39> H  -19.344   27.382   45.576
| 40> H  -20.898   28.157   45.201
| 41> H  -19.543   28.978   47.434
| 42> H  -21.289   28.710   47.548
| 43> H  -20.733   27.082   49.195
| 44> H  -19.064   26.913   48.597
| 45> C  -23.430   25.483   45.442
| 46> H  -22.859   25.271   44.529
| 47> H  -23.652   24.528   45.936
| 48> O  -22.586   26.394   46.375
| 49> C  -24.782   26.130   45.033
| 50> C  -25.637   25.160   44.210
| 51> C  -26.229   24.250   45.313
| 52> C  -26.436   25.225   46.499
| 53> O  -25.596   26.410   46.221
| 54> H  -24.588   27.087   44.545
| 55> H  -26.433   25.705   43.691
| 56> O  -24.817   24.369   43.154
| 57> H  -27.160   23.762   45.007
| 58> H  -25.511   23.465   45.580
| 59> H  -26.134   24.789   47.458
| 60> H  -27.470   25.574   46.578
| 61> H  -24.014   23.813   43.651
| 62> *
| 63>
| 64>                          ****END OF INPUT****
 Total Charge           Charge          ....    0
 Multiplicity           Mult            ....    1
 Number of Electrons    NEL             ....  102
FINAL SINGLE POINT ENERGY      -652.826296593704
FINAL SINGLE POINT ENERGY      -652.849894513180
FINAL SINGLE POINT ENERGY      -652.854385860619
FINAL SINGLE POINT ENERGY      -652.855226655136
FINAL SINGLE POINT ENERGY      -652.855380536820
FINAL SINGLE POINT ENERGY      -652.855410512345
FINAL SINGLE POINT ENERGY      -652.855415267195
                    ***********************HURRAY********************

CARTESIAN COORDINATES (ANGSTROEM)
---------------------------------
  C    -21.029224   26.163076   46.204744
  C    -20.464695   27.555177   45.922488
  C    -20.533070   28.217011   47.319936
  C    -20.229236   27.040890   48.273560
  O    -20.462447   25.806790   47.481602
  H    -20.740957   25.382698   45.493992
  H    -19.425343   27.466583   45.583486
  H    -21.041378   28.088598   45.163715
  H    -19.822496   29.041267   47.431790
  H    -21.543141   28.599521   47.493031
  H    -20.880717   27.021080   49.150522
  H    -19.183927   27.012861   48.596238
  C    -23.256134   25.375339   45.454213
  H    -22.726242   25.165102   44.513471
  H    -23.425420   24.423918   45.980071
  O    -22.473847   26.257864   46.298096
  C    -24.574304   26.067465   45.117610
  C    -25.517950   25.211235   44.257158
  C    -26.218439   24.326821   45.332303
  C    -26.334049   25.286275   46.536833
  O    -25.369095   26.389109   46.297631
  H    -24.339872   27.026759   44.647254
  H    -26.244534   25.859961   43.762759
  O    -24.882243   24.480678   43.179205
  H    -27.185715   23.949608   44.991636
  H    -25.581610   23.463189   45.567792
  H    -26.095731   24.805048   47.490286
  H    -27.326722   25.740339   46.610196
  H    -24.450463   23.671739   43.521382

 Multiplicity           Mult            ....    1
 Number of Electrons    NEL             ....  102
 Basis Dimension        Dim             ....  149

ORBITAL ENERGIES
----------------

  NO   OCC          E(Eh)            E(eV)
   0   2.0000     -19.151732      -521.1451
   1   2.0000     -19.136407      -520.7281
   2   2.0000     -19.135746      -520.7101
   3   2.0000     -19.133339      -520.6446
   4   2.0000     -10.275498      -279.6105
   5   2.0000     -10.246187      -278.8129
   6   2.0000     -10.231315      -278.4082
   7   2.0000     -10.230359      -278.3822
   8   2.0000     -10.229368      -278.3553
   9   2.0000     -10.218684      -278.0645
  10   2.0000     -10.196587      -277.4632
  11   2.0000     -10.179996      -277.0118
  12   2.0000     -10.179008      -276.9849
  13   2.0000      -1.047853       -28.5135
  14   2.0000      -1.034419       -28.1480
  15   2.0000      -1.015614       -27.6363
  16   2.0000      -0.989792       -26.9336
  17   2.0000      -0.784838       -21.3565
  18   2.0000      -0.780478       -21.2379
  19   2.0000      -0.766236       -20.8503
  20   2.0000      -0.727046       -19.7839
  21   2.0000      -0.678947       -18.4751
  22   2.0000      -0.612723       -16.6730
  23   2.0000      -0.592591       -16.1252
  24   2.0000      -0.587377       -15.9833
  25   2.0000      -0.579158       -15.7597
  26   2.0000      -0.529191       -14.4000
  27   2.0000      -0.511119       -13.9082
  28   2.0000      -0.496940       -13.5224
  29   2.0000      -0.485871       -13.2212
  30   2.0000      -0.466516       -12.6945
  31   2.0000      -0.456018       -12.4089
  32   2.0000      -0.444109       -12.0848
  33   2.0000      -0.434770       -11.8307
  34   2.0000      -0.426181       -11.5970
  35   2.0000      -0.418854       -11.3976
  36   2.0000      -0.403956       -10.9922
  37   2.0000      -0.395924       -10.7737
  38   2.0000      -0.376429       -10.2431
  39   2.0000      -0.369776       -10.0621
  40   2.0000      -0.354509        -9.6467
  41   2.0000      -0.350868        -9.5476
  42   2.0000      -0.345065        -9.3897
  43   2.0000      -0.329061        -8.9542
  44   2.0000      -0.317314        -8.6346
  45   2.0000      -0.311576        -8.4784
  46   2.0000      -0.300252        -8.1703
  47   2.0000      -0.272634        -7.4188
  48   2.0000      -0.260099        -7.0777
  49   2.0000      -0.248513        -6.7624
  50   2.0000      -0.235397        -6.4055
  51   0.0000       0.048959         1.3322
  52   0.0000       0.078582         2.1383
  53   0.0000       0.087782         2.3887
  54   0.0000       0.093421         2.5421
  55   0.0000       0.102349         2.7851

MULLIKEN ATOMIC CHARGES
-----------------------
   0 C :    0.279856
   1 C :   -0.250503
   2 C :   -0.300576
   3 C :    0.000057
   4 O :   -0.504057
   5 H :    0.135113
   6 H :    0.139680
   7 H :    0.146244
   8 H :    0.138250
   9 H :    0.170264
  10 H :    0.152740
  11 H :    0.137999
  12 C :   -0.012671
  13 H :    0.131448
  14 H :    0.128395
  15 O :   -0.504883
  16 C :    0.098577
  17 C :    0.082984
  18 C :   -0.326722
  19 C :   -0.004160
  20 O :   -0.504232
  21 H :    0.157500
  22 H :    0.168692
  23 O :   -0.602552
  24 H :    0.156274
  25 H :    0.134923
  26 H :    0.147087
  27 H :    0.147676
  28 H :    0.356598
Sum of atomic charges:   -0.0000000

LOEWDIN ATOMIC CHARGES
----------------------
   0 C :    0.174768
   1 C :   -0.220752
   2 C :   -0.216581
   3 C :   -0.025994
   4 O :   -0.318324
   5 H :    0.096162
   6 H :    0.110765
   7 H :    0.118129
   8 H :    0.112575
   9 H :    0.123262
  10 H :    0.108498
  11 H :    0.100279
  12 C :   -0.047450
  13 H :    0.097345
  14 H :    0.092382
  15 O :   -0.320715
  16 C :    0.020933
  17 C :    0.033999
  18 C :   -0.241321
  19 C :   -0.027929
  20 O :   -0.312066
  21 H :    0.116944
  22 H :    0.119626
  23 O :   -0.409228
  24 H :    0.122191
  25 H :    0.104141
  26 H :    0.104875
  27 H :    0.105192
  28 H :    0.278294

  Mayer bond orders larger than 0.100000
B(  0-C ,  1-C ) :   0.9412 B(  0-C ,  4-O ) :   0.9309 B(  0-C ,  5-H ) :   0.9189
B(  0-C , 15-O ) :   0.8484 B(  1-C ,  2-C ) :   0.9579 B(  1-C ,  6-H ) :   0.9372
B(  1-C ,  7-H ) :   0.9384 B(  2-C ,  3-C ) :   0.9547 B(  2-C ,  8-H ) :   0.9453
B(  2-C ,  9-H ) :   0.9418 B(  3-C ,  4-O ) :   0.8373 B(  3-C , 10-H ) :   0.9347
B(  3-C , 11-H ) :   0.9400 B( 12-C , 13-H ) :   0.9033 B( 12-C , 14-H ) :   0.9189
B( 12-C , 15-O ) :   0.8511 B( 12-C , 16-C ) :   0.9052 B( 16-C , 17-C ) :   0.8714
B( 16-C , 20-O ) :   0.8742 B( 16-C , 21-H ) :   0.9302 B( 17-C , 18-C ) :   0.9266
B( 17-C , 22-H ) :   0.9330 B( 17-C , 23-O ) :   0.8932 B( 18-C , 19-C ) :   0.9370
B( 18-C , 24-H ) :   0.9419 B( 18-C , 25-H ) :   0.9399 B( 19-C , 20-O ) :   0.8502
B( 19-C , 26-H ) :   0.9319 B( 19-C , 27-H ) :   0.9381 B( 23-O , 28-H ) :   0.7987

FINAL SINGLE POINT ENERGY      -652.855415601596

DIPOLE MOMENT
-------------
                                X             Y             Z
Electronic contribution:     -0.95087      -1.15983      -0.79292
Nuclear contribution   :      0.88929       0.76946       0.53653
                        -----------------------------------------
Total Dipole Moment    :     -0.06158      -0.39037      -0.25639
                        -----------------------------------------
Magnitude (a.u.)       :      0.47108
Magnitude (Debye)      :      1.19740

Rotational constants in cm-1:     0.056950     0.011940     0.011117
Rotational constants in MHz :  1707.320817   357.961666   333.277514

                             ****ORCA TERMINATED NORMALLY****
TOTAL RUN TIME: 0 days 1 hours 53 minutes 47 seconds 951 msec
