                         Program Version 4.2.0 -  RELEASE  -
|  1> # Test redundant internal optimization
|  2> #
|  3> ! RKS B3LYP  Opt TightSCF SmallPrint
|  4>
|  5> %basis
|  6>         Basis "6-31G"
|  7> end
|  8>
|  9> %geom
| 10> Constraints
| 11> { D 4  0  15  12  240.0   C } # D for Dihedral angle
| 12> { D 0  15  12  16  150.0   C } # D for Dihedral angle
| 13> { D 0  4  3  2   C } # D for Dihedral angle
| 14> { D 4  3  2  1   C } # D for Dihedral angle
| 15> { D 3  2  1  0   C } # D for Dihedral angle
| 16> { D 2  1  0  4   C } # D for Dihedral angle
| 17> { D 1  0  4  3   C } # D for Dihedral angle
| 18> { D 16  20  19  18   C } # D for Dihedral angle
| 19> { D 20  19  18  17   C } # D for Dihedral angle
| 20> { D 19  18  17  16   C } # D for Dihedral angle
| 21> { D 18  17  16  20   C } # D for Dihedral angle
| 22> { D 17  16  20  19   C } # D for Dihedral angle
| 23> { D 15  12  16  20   C } # D for Dihedral angle
| 24> end
| 25> end
| 26>
| 27>
| 28> #%pal
| 29> #nprocs 8
| 30> #end
| 31>
| 32> * xyz 0 1
| 33> C  -21.048   26.222   46.251
| 34> C  -20.361   27.558   45.944
| 35> C  -20.329   28.222   47.341
| 36> C  -20.110   27.022   48.296
| 37> O  -20.473   25.807   47.535
| 38> H  -20.833   25.428   45.533
| 39> H  -19.344   27.382   45.576
| 40> H  -20.898   28.157   45.201
| 41> H  -19.543   28.978   47.434
| 42> H  -21.289   28.710   47.548
| 43> H  -20.733   27.082   49.195
| 44> H  -19.064   26.913   48.597
| 45> C  -23.430   25.483   45.442
| 46> H  -23.596   25.997   44.488
| 47> H  -22.898   24.545   45.238
| 48> O  -22.586   26.394   46.375
| 49> C  -24.813   25.119   46.049
| 50> C  -25.694   26.363   46.210
| 51> C  -26.210   26.571   44.766
| 52> C  -26.369   25.124   44.237
| 53> O  -25.566   24.260   45.129
| 54> H  -24.662   24.549   46.968
| 55> O  -26.873   26.058   47.175
| 56> H  -25.149   27.230   46.597
| 57> H  -27.147   27.135   44.728
| 58> H  -25.465   27.119   44.177
| 59> H  -26.009   25.011   43.209
| 60> H  -27.402   24.771   44.291
| 61> H  -27.436   25.192   46.808
| 62> *
| 63>
| 64>                          ****END OF INPUT****
 Total Charge           Charge          ....    0
 Multiplicity           Mult            ....    1
 Number of Electrons    NEL             ....  102
FINAL SINGLE POINT ENERGY      -652.837058920358
FINAL SINGLE POINT ENERGY      -652.859928509541
FINAL SINGLE POINT ENERGY      -652.863537095668
FINAL SINGLE POINT ENERGY      -652.864173414994
FINAL SINGLE POINT ENERGY      -652.864257226306
FINAL SINGLE POINT ENERGY      -652.864268290821
FINAL SINGLE POINT ENERGY      -652.864270570175
                    ***********************HURRAY********************

CARTESIAN COORDINATES (ANGSTROEM)
---------------------------------
  C    -21.094773   26.144496   46.189356
  C    -20.463689   27.512656   45.933981
  C    -20.577126   28.181505   47.324798
  C    -20.367439   26.998261   48.295087
  O    -20.608083   25.771309   47.492656
  H    -20.802022   25.349152   45.497591
  H    -19.413113   27.382485   45.648304
  H    -20.978583   28.066266   45.145353
  H    -19.841542   28.977852   47.471400
  H    -21.577946   28.606406   47.447056
  H    -21.061659   27.005725   49.139023
  H    -19.341530   26.931178   48.669373
  C    -23.315443   25.423048   45.327073
  H    -23.442852   25.902811   44.346454
  H    -22.813395   24.458922   45.174218
  O    -22.539426   26.279501   46.209937
  C    -24.664292   25.175583   45.999642
  C    -25.522128   26.430570   46.214110
  C    -26.144480   26.628938   44.808416
  C    -26.354887   25.178912   44.306190
  O    -25.490643   24.313041   45.147348
  H    -24.502634   24.646291   46.942401
  O    -26.541357   26.193513   47.224263
  H    -24.945853   27.284521   46.566600
  H    -27.076606   27.195051   44.876259
  H    -25.454068   27.180041   44.160734
  H    -26.076651   25.045393   43.256008
  H    -27.384548   24.832983   44.440678
  H    -26.933230   25.305588   47.083691

 Multiplicity           Mult            ....    1
 Number of Electrons    NEL             ....  102
 Basis Dimension        Dim             ....  149

ORBITAL ENERGIES
----------------

  NO   OCC          E(Eh)            E(eV)
   0   2.0000     -19.145253      -520.9688
   1   2.0000     -19.144252      -520.9416
   2   2.0000     -19.138743      -520.7917
   3   2.0000     -19.133577      -520.6511
   4   2.0000     -10.281700      -279.7793
   5   2.0000     -10.234664      -278.4994
   6   2.0000     -10.234101      -278.4840
   7   2.0000     -10.231721      -278.4193
   8   2.0000     -10.231576      -278.4153
   9   2.0000     -10.224032      -278.2101
  10   2.0000     -10.186998      -277.2023
  11   2.0000     -10.186468      -277.1879
  12   2.0000     -10.185712      -277.1673
  13   2.0000      -1.053659       -28.6715
  14   2.0000      -1.035066       -28.1656
  15   2.0000      -1.003130       -27.2966
  16   2.0000      -0.996467       -27.1152
  17   2.0000      -0.789219       -21.4757
  18   2.0000      -0.778165       -21.1750
  19   2.0000      -0.767480       -20.8842
  20   2.0000      -0.729549       -19.8520
  21   2.0000      -0.674829       -18.3630
  22   2.0000      -0.603564       -16.4238
  23   2.0000      -0.598998       -16.2996
  24   2.0000      -0.590828       -16.0773
  25   2.0000      -0.584017       -15.8919
  26   2.0000      -0.521465       -14.1898
  27   2.0000      -0.519997       -14.1499
  28   2.0000      -0.497365       -13.5340
  29   2.0000      -0.487136       -13.2556
  30   2.0000      -0.469097       -12.7648
  31   2.0000      -0.455709       -12.4005
  32   2.0000      -0.450569       -12.2606
  33   2.0000      -0.442436       -12.0393
  34   2.0000      -0.426449       -11.6043
  35   2.0000      -0.413703       -11.2574
  36   2.0000      -0.400074       -10.8866
  37   2.0000      -0.391633       -10.6569
  38   2.0000      -0.373656       -10.1677
  39   2.0000      -0.365639        -9.9495
  40   2.0000      -0.359637        -9.7862
  41   2.0000      -0.355286        -9.6678
  42   2.0000      -0.351506        -9.5650
  43   2.0000      -0.330026        -8.9805
  44   2.0000      -0.318164        -8.6577
  45   2.0000      -0.311022        -8.4633
  46   2.0000      -0.302310        -8.2263
  47   2.0000      -0.275575        -7.4988
  48   2.0000      -0.263365        -7.1665
  49   2.0000      -0.249875        -6.7995
  50   2.0000      -0.245075        -6.6688
  51   0.0000       0.064016         1.7420
  52   0.0000       0.075434         2.0527
  53   0.0000       0.096272         2.6197
  54   0.0000       0.099442         2.7060
  55   0.0000       0.104997         2.8571

MULLIKEN ATOMIC CHARGES
-----------------------
   0 C :    0.287918
   1 C :   -0.253174
   2 C :   -0.300751
   3 C :   -0.002598
   4 O :   -0.501603
   5 H :    0.142095
   6 H :    0.143996
   7 H :    0.144005
   8 H :    0.141804
   9 H :    0.162680
  10 H :    0.154624
  11 H :    0.141412
  12 C :   -0.007316
  13 H :    0.126540
  14 H :    0.151727
  15 O :   -0.526216
  16 C :    0.057672
  17 C :    0.093210
  18 C :   -0.305125
  19 C :   -0.028214
  20 O :   -0.528111
  21 H :    0.172217
  22 O :   -0.604020
  23 H :    0.173142
  24 H :    0.163146
  25 H :    0.147014
  26 H :    0.145335
  27 H :    0.145633
  28 H :    0.362955
Sum of atomic charges:   -0.0000000

LOEWDIN ATOMIC CHARGES
----------------------
   0 C :    0.177287
   1 C :   -0.221006
   2 C :   -0.216475
   3 C :   -0.026705
   4 O :   -0.315568
   5 H :    0.099720
   6 H :    0.113085
   7 H :    0.117235
   8 H :    0.114157
   9 H :    0.119144
  10 H :    0.109270
  11 H :    0.102251
  12 C :   -0.036791
  13 H :    0.090345
  14 H :    0.107746
  15 O :   -0.337564
  16 C :    0.016346
  17 C :    0.038975
  18 C :   -0.243669
  19 C :   -0.037642
  20 O :   -0.331409
  21 H :    0.121896
  22 O :   -0.415018
  23 H :    0.126331
  24 H :    0.126980
  25 H :    0.113894
  26 H :    0.103130
  27 H :    0.102339
  28 H :    0.281716

  Mayer bond orders larger than 0.100000
B(  0-C ,  1-C ) :   0.9431 B(  0-C ,  4-O ) :   0.9325 B(  0-C ,  5-H ) :   0.9197
B(  0-C , 15-O ) :   0.8358 B(  1-C ,  2-C ) :   0.9573 B(  1-C ,  6-H ) :   0.9365
B(  1-C ,  7-H ) :   0.9390 B(  2-C ,  3-C ) :   0.9541 B(  2-C ,  8-H ) :   0.9452
B(  2-C ,  9-H ) :   0.9437 B(  3-C ,  4-O ) :   0.8368 B(  3-C , 10-H ) :   0.9343
B(  3-C , 11-H ) :   0.9398 B( 12-C , 13-H ) :   0.9223 B( 12-C , 14-H ) :   0.9155
B( 12-C , 15-O ) :   0.8284 B( 12-C , 16-C ) :   0.9044 B( 16-C , 17-C ) :   0.9146
B( 16-C , 20-O ) :   0.8424 B( 16-C , 21-H ) :   0.9236 B( 17-C , 18-C ) :   0.9125
B( 17-C , 22-O ) :   0.8896 B( 17-C , 23-H ) :   0.9249 B( 18-C , 19-C ) :   0.9409
B( 18-C , 24-H ) :   0.9373 B( 18-C , 25-H ) :   0.9344 B( 19-C , 20-O ) :   0.8423
B( 19-C , 26-H ) :   0.9356 B( 19-C , 27-H ) :   0.9386 B( 22-O , 28-H ) :   0.7958

FINAL SINGLE POINT ENERGY      -652.864270725500

DIPOLE MOMENT
-------------
                                X             Y             Z
Electronic contribution:     -1.93438      -4.54622       2.07932
Nuclear contribution   :      2.34581       5.29963      -3.12528
                        -----------------------------------------
Total Dipole Moment    :      0.41143       0.75341      -1.04596
                        -----------------------------------------
Magnitude (a.u.)       :      1.35312
Magnitude (Debye)      :      3.43937

Rotational constants in cm-1:     0.056981     0.011968     0.011508
Rotational constants in MHz :  1708.235389   358.802638   344.986878

                             ****ORCA TERMINATED NORMALLY****
TOTAL RUN TIME: 0 days 1 hours 25 minutes 25 seconds 621 msec
