                         Program Version 4.2.0 -  RELEASE  -
|  1> # Test redundant internal optimization
|  2> #
|  3> ! RKS B3LYP  Opt TightSCF SmallPrint
|  4>
|  5> %basis
|  6>         Basis "6-31G"
|  7> end
|  8>
|  9> %geom
| 10> Constraints
| 11> { D 4  0  15  12  255.0   C } # D for Dihedral angle
| 12> { D 0  15  12  16  225.0   C } # D for Dihedral angle
| 13> { D 0  4  3  2   C } # D for Dihedral angle
| 14> { D 4  3  2  1   C } # D for Dihedral angle
| 15> { D 3  2  1  0   C } # D for Dihedral angle
| 16> { D 2  1  0  4   C } # D for Dihedral angle
| 17> { D 1  0  4  3   C } # D for Dihedral angle
| 18> { D 16  20  19  18   C } # D for Dihedral angle
| 19> { D 20  19  18  17   C } # D for Dihedral angle
| 20> { D 19  18  17  16   C } # D for Dihedral angle
| 21> { D 18  17  16  20   C } # D for Dihedral angle
| 22> { D 17  16  20  19   C } # D for Dihedral angle
| 23> { D 15  12  16  20   C } # D for Dihedral angle
| 24> end
| 25> end
| 26>
| 27>
| 28> #%pal
| 29> #nprocs 8
| 30> #end
| 31>
| 32> * xyz 0 1
| 33> C  -21.048   26.222   46.251
| 34> C  -20.361   27.558   45.944
| 35> C  -20.329   28.222   47.341
| 36> C  -20.110   27.022   48.296
| 37> O  -20.473   25.807   47.535
| 38> H  -20.833   25.428   45.533
| 39> H  -19.344   27.382   45.576
| 40> H  -20.898   28.157   45.201
| 41> H  -19.543   28.978   47.434
| 42> H  -21.289   28.710   47.548
| 43> H  -20.733   27.082   49.195
| 44> H  -19.064   26.913   48.597
| 45> C  -23.431   25.260   45.734
| 46> H  -22.791   24.658   45.077
| 47> H  -23.841   24.601   46.510
| 48> O  -22.586   26.394   46.375
| 49> C  -24.622   25.799   44.894
| 50> C  -25.516   26.726   45.727
| 51> C  -24.705   28.044   45.707
| 52> C  -24.067   28.043   44.296
| 53> O  -24.136   26.650   43.803
| 54> H  -25.146   24.959   44.435
| 55> O  -26.887   26.916   45.024
| 56> H  -25.696   26.353   46.741
| 57> H  -25.326   28.928   45.884
| 58> H  -23.929   28.020   46.482
| 59> H  -23.021   28.368   44.308
| 60> H  -24.622   28.664   43.586
| 61> H  -26.731   27.290   44.006
| 62> *
| 63>
| 64>                          ****END OF INPUT****
 Total Charge           Charge          ....    0
 Multiplicity           Mult            ....    1
 Number of Electrons    NEL             ....  102
FINAL SINGLE POINT ENERGY      -652.837325978794
FINAL SINGLE POINT ENERGY      -652.859676174325
FINAL SINGLE POINT ENERGY      -652.863820625454
FINAL SINGLE POINT ENERGY      -652.865044655988
FINAL SINGLE POINT ENERGY      -652.865155527361
FINAL SINGLE POINT ENERGY      -652.865173352857
                    ***********************HURRAY********************

CARTESIAN COORDINATES (ANGSTROEM)
---------------------------------
  C    -21.056252   26.155291   46.227237
  C    -20.413030   27.511566   45.935984
  C    -20.395840   28.165981   47.339370
  C    -20.137912   26.963243   48.275147
  O    -20.473160   25.754370   47.484396
  H    -20.834722   25.364415   45.505021
  H    -19.391993   27.352720   45.569797
  H    -20.969083   28.083642   45.191412
  H    -19.627991   28.939694   47.434864
  H    -21.369513   28.618675   47.550590
  H    -20.758946   26.978310   49.174265
  H    -19.086758   26.868588   48.563589
  C    -23.343891   25.300189   45.773542
  H    -22.751860   24.666878   45.099339
  H    -23.739491   24.667128   46.579807
  O    -22.489059   26.330790   46.343926
  C    -24.502251   25.889835   44.972806
  C    -25.484469   26.796299   45.729431
  C    -24.763244   28.167411   45.663849
  C    -24.081097   28.137193   44.273931
  O    -24.040700   26.715862   43.855346
  H    -25.047948   25.045179   44.534077
  O    -26.779999   26.817534   45.065547
  H    -25.690872   26.465800   46.747677
  H    -25.477106   28.988501   45.773057
  H    -24.015832   28.219715   46.458097
  H    -23.061229   28.529433   44.299876
  H    -24.648180   28.679946   43.510113
  H    -26.645573   26.979810   44.107907

 Multiplicity           Mult            ....    1
 Number of Electrons    NEL             ....  102
 Basis Dimension        Dim             ....  149

ORBITAL ENERGIES
----------------

  NO   OCC          E(Eh)            E(eV)
   0   2.0000     -19.148085      -521.0459
   1   2.0000     -19.140936      -520.8513
   2   2.0000     -19.139865      -520.8222
   3   2.0000     -19.134880      -520.6866
   4   2.0000     -10.282676      -279.8058
   5   2.0000     -10.237197      -278.5683
   6   2.0000     -10.235394      -278.5192
   7   2.0000     -10.234532      -278.4958
   8   2.0000     -10.226831      -278.2862
   9   2.0000     -10.226208      -278.2693
  10   2.0000     -10.188371      -277.2397
  11   2.0000     -10.187686      -277.2210
  12   2.0000     -10.178896      -276.9818
  13   2.0000      -1.055784       -28.7293
  14   2.0000      -1.033679       -28.1278
  15   2.0000      -1.004643       -27.3377
  16   2.0000      -0.995681       -27.0939
  17   2.0000      -0.790693       -21.5159
  18   2.0000      -0.777261       -21.1503
  19   2.0000      -0.766387       -20.8544
  20   2.0000      -0.732601       -19.9351
  21   2.0000      -0.676001       -18.3949
  22   2.0000      -0.601001       -16.3541
  23   2.0000      -0.599032       -16.3005
  24   2.0000      -0.597992       -16.2722
  25   2.0000      -0.581519       -15.8239
  26   2.0000      -0.526805       -14.3351
  27   2.0000      -0.507036       -13.7971
  28   2.0000      -0.495163       -13.4741
  29   2.0000      -0.490199       -13.3390
  30   2.0000      -0.473703       -12.8901
  31   2.0000      -0.462543       -12.5864
  32   2.0000      -0.449548       -12.2328
  33   2.0000      -0.434875       -11.8336
  34   2.0000      -0.428761       -11.6672
  35   2.0000      -0.410392       -11.1673
  36   2.0000      -0.399881       -10.8813
  37   2.0000      -0.389595       -10.6014
  38   2.0000      -0.379582       -10.3290
  39   2.0000      -0.366721        -9.9790
  40   2.0000      -0.358859        -9.7651
  41   2.0000      -0.357293        -9.7224
  42   2.0000      -0.350730        -9.5439
  43   2.0000      -0.330310        -8.9882
  44   2.0000      -0.320247        -8.7144
  45   2.0000      -0.310565        -8.4509
  46   2.0000      -0.301657        -8.2085
  47   2.0000      -0.274482        -7.4690
  48   2.0000      -0.265655        -7.2288
  49   2.0000      -0.254532        -6.9262
  50   2.0000      -0.241567        -6.5734
  51   0.0000       0.061303         1.6681
  52   0.0000       0.079383         2.1601
  53   0.0000       0.086574         2.3558
  54   0.0000       0.102068         2.7774
  55   0.0000       0.107529         2.9260

MULLIKEN ATOMIC CHARGES
-----------------------
   0 C :    0.290065
   1 C :   -0.263983
   2 C :   -0.303910
   3 C :    0.000092
   4 O :   -0.504054
   5 H :    0.147305
   6 H :    0.147139
   7 H :    0.155960
   8 H :    0.142977
   9 H :    0.159081
  10 H :    0.149366
  11 H :    0.142396
  12 C :    0.004113
  13 H :    0.139951
  14 H :    0.142748
  15 O :   -0.528344
  16 C :    0.070970
  17 C :    0.076844
  18 C :   -0.292670
  19 C :   -0.027222
  20 O :   -0.528616
  21 H :    0.156004
  22 O :   -0.600606
  23 H :    0.153912
  24 H :    0.149121
  25 H :    0.175899
  26 H :    0.145090
  27 H :    0.139133
  28 H :    0.361240
Sum of atomic charges:   -0.0000000

LOEWDIN ATOMIC CHARGES
----------------------
   0 C :    0.177668
   1 C :   -0.218349
   2 C :   -0.217158
   3 C :   -0.026701
   4 O :   -0.321082
   5 H :    0.101001
   6 H :    0.115249
   7 H :    0.119331
   8 H :    0.114311
   9 H :    0.115839
  10 H :    0.106706
  11 H :    0.102577
  12 C :   -0.031586
  13 H :    0.104108
  14 H :    0.104302
  15 O :   -0.332198
  16 C :    0.010224
  17 C :    0.039127
  18 C :   -0.242408
  19 C :   -0.034289
  20 O :   -0.332357
  21 H :    0.116509
  22 O :   -0.415978
  23 H :    0.117444
  24 H :    0.119221
  25 H :    0.129057
  26 H :    0.101187
  27 H :    0.097225
  28 H :    0.281023

  Mayer bond orders larger than 0.100000
B(  0-C ,  1-C ) :   0.9459 B(  0-C ,  4-O ) :   0.9260 B(  0-C ,  5-H ) :   0.9159
B(  0-C , 15-O ) :   0.8426 B(  1-C ,  2-C ) :   0.9572 B(  1-C ,  6-H ) :   0.9376
B(  1-C ,  7-H ) :   0.9307 B(  2-C ,  3-C ) :   0.9536 B(  2-C ,  8-H ) :   0.9450
B(  2-C ,  9-H ) :   0.9437 B(  3-C ,  4-O ) :   0.8392 B(  3-C , 10-H ) :   0.9352
B(  3-C , 11-H ) :   0.9398 B( 12-C , 13-H ) :   0.9181 B( 12-C , 14-H ) :   0.9167
B( 12-C , 15-O ) :   0.8504 B( 12-C , 16-C ) :   0.8992 B( 16-C , 17-C ) :   0.9104
B( 16-C , 20-O ) :   0.8670 B( 16-C , 21-H ) :   0.9189 B( 17-C , 18-C ) :   0.9246
B( 17-C , 22-O ) :   0.8932 B( 17-C , 23-H ) :   0.9350 B( 18-C , 19-C ) :   0.9467
B( 18-C , 24-H ) :   0.9373 B( 18-C , 25-H ) :   0.9184 B( 19-C , 20-O ) :   0.8433
B( 19-C , 26-H ) :   0.9274 B( 19-C , 27-H ) :   0.9361 B( 22-O , 28-H ) :   0.7968

FINAL SINGLE POINT ENERGY      -652.865173578920

DIPOLE MOMENT
-------------
                                X             Y             Z
Electronic contribution:     -3.00679      -4.33049      -1.52452
Nuclear contribution   :      3.73061       5.03108       1.48504
                        -----------------------------------------
Total Dipole Moment    :      0.72383       0.70060      -0.03948
                        -----------------------------------------
Magnitude (a.u.)       :      1.00813
Magnitude (Debye)      :      2.56245

Rotational constants in cm-1:     0.056699     0.014062     0.013440
Rotational constants in MHz :  1699.800919   421.569421   402.909704

                             ****ORCA TERMINATED NORMALLY****
TOTAL RUN TIME: 0 days 1 hours 5 minutes 38 seconds 916 msec
