                         Program Version 4.2.0 -  RELEASE  -
|  1> # Test redundant internal optimization
|  2> #
|  3> ! RKS B3LYP  Opt TightSCF SmallPrint
|  4>
|  5> %basis
|  6>         Basis "6-31G"
|  7> end
|  8>
|  9> %geom
| 10> Constraints
| 11> { D 4  0  15  12  180.0   C } # D for Dihedral angle
| 12> { D 0  15  12  16  15.0   C } # D for Dihedral angle
| 13> { D 0  4  3  2   C } # D for Dihedral angle
| 14> { D 4  3  2  1   C } # D for Dihedral angle
| 15> { D 3  2  1  0   C } # D for Dihedral angle
| 16> { D 2  1  0  4   C } # D for Dihedral angle
| 17> { D 1  0  4  3   C } # D for Dihedral angle
| 18> { D 16  20  19  18   C } # D for Dihedral angle
| 19> { D 20  19  18  17   C } # D for Dihedral angle
| 20> { D 19  18  17  16   C } # D for Dihedral angle
| 21> { D 18  17  16  20   C } # D for Dihedral angle
| 22> { D 17  16  20  19   C } # D for Dihedral angle
| 23> { D 15  12  16  20   C } # D for Dihedral angle
| 24> end
| 25> end
| 26>
| 27>
| 28> #%pal
| 29> #nprocs 8
| 30> #end
| 31>
| 32> * xyz 0 1
| 33> C  -21.048   26.222   46.251
| 34> C  -20.361   27.558   45.944
| 35> C  -20.329   28.222   47.341
| 36> C  -20.110   27.022   48.296
| 37> O  -20.473   25.807   47.535
| 38> H  -20.833   25.428   45.533
| 39> H  -19.344   27.382   45.576
| 40> H  -20.898   28.157   45.201
| 41> H  -19.543   28.978   47.434
| 42> H  -21.289   28.710   47.548
| 43> H  -20.733   27.082   49.195
| 44> H  -19.064   26.913   48.597
| 45> C  -23.309   26.834   45.072
| 46> H  -24.217   26.232   44.941
| 47> H  -23.602   27.889   45.134
| 48> O  -22.586   26.394   46.375
| 49> C  -22.423   26.662   43.807
| 50> C  -22.104   25.186   43.547
| 51> C  -23.413   24.694   42.885
| 52> C  -23.873   25.923   42.060
| 53> O  -23.152   27.091   42.609
| 54> H  -21.546   27.306   43.895
| 55> H  -21.262   25.101   42.849
| 56> O  -21.749   24.401   44.839
| 57> H  -23.266   23.805   42.264
| 58> H  -24.153   24.446   43.655
| 59> H  -24.951   26.098   42.136
| 60> H  -23.601   25.842   41.005
| 61> H  -22.578   24.473   45.552
| 62> *
| 63>
| 64>                          ****END OF INPUT****
 Total Charge           Charge          ....    0
 Multiplicity           Mult            ....    1
 Number of Electrons    NEL             ....  102
FINAL SINGLE POINT ENERGY      -652.793508279646
FINAL SINGLE POINT ENERGY      -652.831640872748
FINAL SINGLE POINT ENERGY      -652.846050806444
FINAL SINGLE POINT ENERGY      -652.847731247210
FINAL SINGLE POINT ENERGY      -652.848154118103
FINAL SINGLE POINT ENERGY      -652.848238807878
FINAL SINGLE POINT ENERGY      -652.848250133301
FINAL SINGLE POINT ENERGY      -652.848253160705
                    ***********************HURRAY********************

CARTESIAN COORDINATES (ANGSTROEM)
---------------------------------
  C    -20.912792   26.227162   46.378320
  C    -20.087037   27.487074   46.118227
  C    -20.324752   28.305049   47.415609
  C    -20.409459   27.205086   48.494008
  O    -20.675978   25.941671   47.761695
  H    -20.630436   25.357323   45.792730
  H    -19.030716   27.208335   46.020479
  H    -20.380294   28.031964   45.217638
  H    -19.522542   29.022725   47.611823
  H    -21.270230   28.849980   47.343630
  H    -21.216055   27.368179   49.213358
  H    -19.466670   27.061263   49.031193
  C    -23.049166   26.837030   45.027787
  H    -23.988122   26.274752   45.067087
  H    -23.309915   27.901521   45.069279
  O    -22.354878   26.496456   46.272813
  C    -22.398191   26.618669   43.641973
  C    -22.125925   25.153722   43.238052
  C    -23.561424   24.647396   42.855385
  C    -24.191933   25.908890   42.223528
  O    -23.379277   27.069416   42.659456
  H    -21.515975   27.248516   43.512630
  H    -21.471425   25.139196   42.363408
  O    -21.474260   24.288556   44.194733
  H    -23.523295   23.796760   42.170863
  H    -24.091616   24.336166   43.763564
  H    -25.229780   26.070539   42.530623
  H    -24.149496   25.887495   41.129980
  H    -22.068360   24.117107   44.956131

 Multiplicity           Mult            ....    1
 Number of Electrons    NEL             ....  102
 Basis Dimension        Dim             ....  149

ORBITAL ENERGIES
----------------

  NO   OCC          E(Eh)            E(eV)
   0   2.0000     -19.156336      -521.2704
   1   2.0000     -19.150827      -521.1205
   2   2.0000     -19.134695      -520.6815
   3   2.0000     -19.133508      -520.6492
   4   2.0000     -10.268755      -279.4270
   5   2.0000     -10.252170      -278.9757
   6   2.0000     -10.243479      -278.7392
   7   2.0000     -10.238454      -278.6025
   8   2.0000     -10.230829      -278.3950
   9   2.0000     -10.220052      -278.1018
  10   2.0000     -10.200167      -277.5607
  11   2.0000     -10.182407      -277.0774
  12   2.0000     -10.182247      -277.0730
  13   2.0000      -1.047285       -28.4981
  14   2.0000      -1.040139       -28.3036
  15   2.0000      -1.027129       -27.9496
  16   2.0000      -0.982140       -26.7254
  17   2.0000      -0.785742       -21.3811
  18   2.0000      -0.780584       -21.2408
  19   2.0000      -0.769685       -20.9442
  20   2.0000      -0.732388       -19.9293
  21   2.0000      -0.681971       -18.5574
  22   2.0000      -0.618071       -16.8186
  23   2.0000      -0.606058       -16.4917
  24   2.0000      -0.595043       -16.1919
  25   2.0000      -0.564585       -15.3631
  26   2.0000      -0.535812       -14.5802
  27   2.0000      -0.514415       -13.9980
  28   2.0000      -0.498715       -13.5707
  29   2.0000      -0.482603       -13.1323
  30   2.0000      -0.467968       -12.7341
  31   2.0000      -0.457789       -12.4571
  32   2.0000      -0.444167       -12.0864
  33   2.0000      -0.440995       -12.0001
  34   2.0000      -0.431454       -11.7405
  35   2.0000      -0.417263       -11.3543
  36   2.0000      -0.412392       -11.2218
  37   2.0000      -0.398971       -10.8566
  38   2.0000      -0.382713       -10.4142
  39   2.0000      -0.370011       -10.0685
  40   2.0000      -0.364083        -9.9072
  41   2.0000      -0.354911        -9.6576
  42   2.0000      -0.349780        -9.5180
  43   2.0000      -0.339610        -9.2413
  44   2.0000      -0.323512        -8.8032
  45   2.0000      -0.310582        -8.4514
  46   2.0000      -0.300175        -8.1682
  47   2.0000      -0.272254        -7.4084
  48   2.0000      -0.253429        -6.8961
  49   2.0000      -0.251475        -6.8430
  50   2.0000      -0.244126        -6.6430
  51   0.0000       0.050529         1.3750
  52   0.0000       0.069866         1.9012
  53   0.0000       0.081061         2.2058
  54   0.0000       0.094680         2.5764
  55   0.0000       0.101733         2.7683

MULLIKEN ATOMIC CHARGES
-----------------------
   0 C :    0.269551
   1 C :   -0.279886
   2 C :   -0.297005
   3 C :   -0.000124
   4 O :   -0.502630
   5 H :    0.180341
   6 H :    0.147787
   7 H :    0.139424
   8 H :    0.139505
   9 H :    0.158177
  10 H :    0.151507
  11 H :    0.141374
  12 C :   -0.006760
  13 H :    0.140618
  14 H :    0.155476
  15 O :   -0.540074
  16 C :    0.042028
  17 C :    0.098616
  18 C :   -0.329500
  19 C :   -0.017279
  20 O :   -0.516498
  21 H :    0.159716
  22 H :    0.168993
  23 O :   -0.592283
  24 H :    0.163318
  25 H :    0.145406
  26 H :    0.149456
  27 H :    0.156815
  28 H :    0.373934
Sum of atomic charges:    0.0000000

LOEWDIN ATOMIC CHARGES
----------------------
   0 C :    0.167476
   1 C :   -0.231142
   2 C :   -0.216854
   3 C :   -0.026015
   4 O :   -0.302923
   5 H :    0.113137
   6 H :    0.115609
   7 H :    0.110044
   8 H :    0.113083
   9 H :    0.116599
  10 H :    0.107977
  11 H :    0.101742
  12 C :   -0.051944
  13 H :    0.104355
  14 H :    0.109868
  15 O :   -0.353227
  16 C :    0.005682
  17 C :    0.033491
  18 C :   -0.241290
  19 C :   -0.032498
  20 O :   -0.315817
  21 H :    0.111591
  22 H :    0.119411
  23 O :   -0.396366
  24 H :    0.126082
  25 H :    0.109714
  26 H :    0.105323
  27 H :    0.108862
  28 H :    0.288029

  Mayer bond orders larger than 0.100000
B(  0-C ,  1-C ) :   0.9318 B(  0-C ,  4-O ) :   0.9293 B(  0-C ,  5-H ) :   0.8805
B(  0-C , 15-O ) :   0.8094 B(  1-C ,  2-C ) :   0.9494 B(  1-C ,  6-H ) :   0.9348
B(  1-C ,  7-H ) :   0.9314 B(  2-C ,  3-C ) :   0.9558 B(  2-C ,  8-H ) :   0.9451
B(  2-C ,  9-H ) :   0.9454 B(  3-C ,  4-O ) :   0.8353 B(  3-C , 10-H ) :   0.9353
B(  3-C , 11-H ) :   0.9398 B( 12-C , 13-H ) :   0.9325 B( 12-C , 14-H ) :   0.9215
B( 12-C , 15-O ) :   0.8449 B( 12-C , 16-C ) :   0.8882 B( 16-C , 17-C ) :   0.8783
B( 16-C , 20-O ) :   0.8332 B( 16-C , 21-H ) :   0.9231 B( 17-C , 18-C ) :   0.9216
B( 17-C , 22-H ) :   0.9318 B( 17-C , 23-O ) :   0.8973 B( 18-C , 19-C ) :   0.9415
B( 18-C , 24-H ) :   0.9409 B( 18-C , 25-H ) :   0.9397 B( 19-C , 20-O ) :   0.8322
B( 19-C , 26-H ) :   0.9322 B( 19-C , 27-H ) :   0.9369 B( 23-O , 28-H ) :   0.7837

FINAL SINGLE POINT ENERGY      -652.848253326983

DIPOLE MOMENT
-------------
                                X             Y             Z
Electronic contribution:     -0.17904      -2.38265       0.20063
Nuclear contribution   :     -0.07638       2.61480      -0.82187
                        -----------------------------------------
Total Dipole Moment    :     -0.25543       0.23215      -0.62124
                        -----------------------------------------
Magnitude (a.u.)       :      0.71069
Magnitude (Debye)      :      1.80642

Rotational constants in cm-1:     0.060850     0.014116     0.012966
Rotational constants in MHz :  1824.239092   423.184543   388.703116

                             ****ORCA TERMINATED NORMALLY****
TOTAL RUN TIME: 0 days 1 hours 20 minutes 56 seconds 667 msec
