                         Program Version 4.2.0 -  RELEASE  -
|  1> # Test redundant internal optimization
|  2> #
|  3> ! RKS B3LYP  Opt TightSCF SmallPrint
|  4>
|  5> %basis
|  6>         Basis "6-31G"
|  7> end
|  8>
|  9> %geom
| 10> Constraints
| 11> { D 4  0  15  12  255.0   C } # D for Dihedral angle
| 12> { D 0  15  12  16  60.0   C } # D for Dihedral angle
| 13> { D 0  4  3  2   C } # D for Dihedral angle
| 14> { D 4  3  2  1   C } # D for Dihedral angle
| 15> { D 3  2  1  0   C } # D for Dihedral angle
| 16> { D 2  1  0  4   C } # D for Dihedral angle
| 17> { D 1  0  4  3   C } # D for Dihedral angle
| 18> { D 16  20  19  18   C } # D for Dihedral angle
| 19> { D 20  19  18  17   C } # D for Dihedral angle
| 20> { D 19  18  17  16   C } # D for Dihedral angle
| 21> { D 18  17  16  20   C } # D for Dihedral angle
| 22> { D 17  16  20  19   C } # D for Dihedral angle
| 23> { D 15  12  16  20   C } # D for Dihedral angle
| 24> end
| 25> end
| 26>
| 27>
| 28> #%pal
| 29> #nprocs 8
| 30> #end
| 31>
| 32> * xyz 0 1
| 33> C  -21.048   26.222   46.251
| 34> C  -20.361   27.558   45.944
| 35> C  -20.329   28.222   47.341
| 36> C  -20.110   27.022   48.296
| 37> O  -20.473   25.807   47.535
| 38> H  -20.833   25.428   45.533
| 39> H  -19.344   27.382   45.576
| 40> H  -20.898   28.157   45.201
| 41> H  -19.543   28.978   47.434
| 42> H  -21.289   28.710   47.548
| 43> H  -20.733   27.082   49.195
| 44> H  -19.064   26.913   48.597
| 45> C  -23.431   25.260   45.734
| 46> H  -24.497   25.482   45.869
| 47> H  -23.229   25.192   44.657
| 48> O  -22.586   26.394   46.375
| 49> C  -23.140   23.867   46.358
| 50> C  -23.903   22.758   45.626
| 51> C  -23.024   22.550   44.369
| 52> C  -21.588   22.783   44.902
| 53> O  -21.728   23.511   46.181
| 54> H  -23.327   23.911   47.433
| 55> H  -23.925   21.848   46.237
| 56> O  -25.365   23.150   45.279
| 57> H  -23.148   21.557   43.924
| 58> H  -23.278   23.294   43.605
| 59> H  -20.978   23.380   44.214
| 60> H  -21.066   21.847   45.118
| 61> H  -25.369   24.058   44.666
| 62> *
| 63>
| 64>                          ****END OF INPUT****
 Total Charge           Charge          ....    0
 Multiplicity           Mult            ....    1
 Number of Electrons    NEL             ....  102
FINAL SINGLE POINT ENERGY      -652.825554226100
FINAL SINGLE POINT ENERGY      -652.849656400153
FINAL SINGLE POINT ENERGY      -652.854917028683
FINAL SINGLE POINT ENERGY      -652.855886998811
FINAL SINGLE POINT ENERGY      -652.856031521300
FINAL SINGLE POINT ENERGY      -652.856066081163
FINAL SINGLE POINT ENERGY      -652.856069177522
                    ***********************HURRAY********************

CARTESIAN COORDINATES (ANGSTROEM)
---------------------------------
  C    -20.927938   26.239980   46.215750
  C    -20.390874   27.652736   45.984357
  C    -20.466943   28.260602   47.406315
  C    -20.137213   27.054622   48.312955
  O    -20.348760   25.847402   47.478467
  H    -20.640311   25.482396   45.488453
  H    -19.351098   27.593093   45.641116
  H    -20.978837   28.203676   45.247087
  H    -19.771819   29.093717   47.547973
  H    -21.483008   28.618871   47.596156
  H    -20.782209   26.992606   49.193425
  H    -19.090214   27.037381   48.631603
  C    -23.225695   25.320227   45.738699
  H    -24.243202   25.651036   45.965511
  H    -23.097319   25.322625   44.641608
  O    -22.373804   26.342026   46.313300
  C    -23.036347   23.903244   46.286795
  C    -23.944130   22.850537   45.626451
  C    -23.126725   22.480725   44.350579
  C    -21.665759   22.574457   44.840639
  O    -21.685308   23.378843   46.092707
  H    -23.174030   23.939770   47.371554
  H    -24.033197   21.985316   46.286729
  O    -25.308693   23.267325   45.382610
  H    -23.385222   21.489963   43.968016
  H    -23.333391   23.213357   43.558755
  H    -21.001589   23.056356   44.115817
  H    -21.250970   21.596386   45.099420
  H    -25.352393   23.873724   44.615155

 Multiplicity           Mult            ....    1
 Number of Electrons    NEL             ....  102
 Basis Dimension        Dim             ....  149

ORBITAL ENERGIES
----------------

  NO   OCC          E(Eh)            E(eV)
   0   2.0000     -19.151894      -521.1495
   1   2.0000     -19.141137      -520.8568
   2   2.0000     -19.134455      -520.6750
   3   2.0000     -19.124229      -520.3967
   4   2.0000     -10.265569      -279.3403
   5   2.0000     -10.247277      -278.8426
   6   2.0000     -10.233297      -278.4622
   7   2.0000     -10.231648      -278.4173
   8   2.0000     -10.229338      -278.3544
   9   2.0000     -10.212910      -277.9074
  10   2.0000     -10.198445      -277.5138
  11   2.0000     -10.175400      -276.8867
  12   2.0000     -10.175264      -276.8830
  13   2.0000      -1.042778       -28.3754
  14   2.0000      -1.033807       -28.1313
  15   2.0000      -1.017178       -27.6788
  16   2.0000      -0.983724       -26.7685
  17   2.0000      -0.785596       -21.3771
  18   2.0000      -0.778139       -21.1742
  19   2.0000      -0.763152       -20.7664
  20   2.0000      -0.725170       -19.7329
  21   2.0000      -0.678042       -18.4505
  22   2.0000      -0.614511       -16.7217
  23   2.0000      -0.593755       -16.1569
  24   2.0000      -0.587212       -15.9789
  25   2.0000      -0.568065       -15.4578
  26   2.0000      -0.529233       -14.4012
  27   2.0000      -0.509171       -13.8552
  28   2.0000      -0.495900       -13.4941
  29   2.0000      -0.478427       -13.0187
  30   2.0000      -0.463897       -12.6233
  31   2.0000      -0.452948       -12.3254
  32   2.0000      -0.442976       -12.0540
  33   2.0000      -0.431764       -11.7489
  34   2.0000      -0.426465       -11.6047
  35   2.0000      -0.417712       -11.3665
  36   2.0000      -0.406097       -11.0505
  37   2.0000      -0.388447       -10.5702
  38   2.0000      -0.383015       -10.4224
  39   2.0000      -0.362691        -9.8693
  40   2.0000      -0.357083        -9.7167
  41   2.0000      -0.346303        -9.4234
  42   2.0000      -0.339534        -9.2392
  43   2.0000      -0.330138        -8.9835
  44   2.0000      -0.317596        -8.6422
  45   2.0000      -0.309590        -8.4244
  46   2.0000      -0.291993        -7.9455
  47   2.0000      -0.272836        -7.4242
  48   2.0000      -0.261385        -7.1126
  49   2.0000      -0.249881        -6.7996
  50   2.0000      -0.228383        -6.2146
  51   0.0000       0.048256         1.3131
  52   0.0000       0.069770         1.8985
  53   0.0000       0.090172         2.4537
  54   0.0000       0.099097         2.6966
  55   0.0000       0.108003         2.9389

MULLIKEN ATOMIC CHARGES
-----------------------
   0 C :    0.296405
   1 C :   -0.253519
   2 C :   -0.297827
   3 C :   -0.000974
   4 O :   -0.496275
   5 H :    0.151536
   6 H :    0.139453
   7 H :    0.142956
   8 H :    0.135037
   9 H :    0.160364
  10 H :    0.145275
  11 H :    0.136703
  12 C :   -0.019295
  13 H :    0.158232
  14 H :    0.108882
  15 O :   -0.526658
  16 C :    0.086327
  17 C :    0.082115
  18 C :   -0.318043
  19 C :   -0.021027
  20 O :   -0.500494
  21 H :    0.173026
  22 H :    0.172036
  23 O :   -0.598439
  24 H :    0.156880
  25 H :    0.132337
  26 H :    0.142757
  27 H :    0.155786
  28 H :    0.356444
Sum of atomic charges:   -0.0000000

LOEWDIN ATOMIC CHARGES
----------------------
   0 C :    0.175644
   1 C :   -0.219363
   2 C :   -0.216691
   3 C :   -0.028736
   4 O :   -0.311614
   5 H :    0.105787
   6 H :    0.110483
   7 H :    0.116773
   8 H :    0.110376
   9 H :    0.118196
  10 H :    0.104367
  11 H :    0.099527
  12 C :   -0.046818
  13 H :    0.119630
  14 H :    0.079966
  15 O :   -0.328972
  16 C :    0.007425
  17 C :    0.035662
  18 C :   -0.240772
  19 C :   -0.033612
  20 O :   -0.310259
  21 H :    0.123371
  22 H :    0.121311
  23 O :   -0.405833
  24 H :    0.122756
  25 H :    0.103135
  26 H :    0.100749
  27 H :    0.109073
  28 H :    0.278440

  Mayer bond orders larger than 0.100000
B(  0-C ,  1-C ) :   0.9426 B(  0-C ,  4-O ) :   0.9193 B(  0-C ,  5-H ) :   0.9156
B(  0-C , 15-O ) :   0.8276 B(  1-C ,  2-C ) :   0.9573 B(  1-C ,  6-H ) :   0.9401
B(  1-C ,  7-H ) :   0.9388 B(  2-C ,  3-C ) :   0.9531 B(  2-C ,  8-H ) :   0.9462
B(  2-C ,  9-H ) :   0.9442 B(  3-C ,  4-O ) :   0.8472 B(  3-C , 10-H ) :   0.9353
B(  3-C , 11-H ) :   0.9401 B( 12-C , 13-H ) :   0.9230 B( 12-C , 14-H ) :   0.9232
B( 12-C , 15-O ) :   0.8764 B( 12-C , 16-C ) :   0.8893 B( 16-C , 17-C ) :   0.8685
B( 16-C , 20-O ) :   0.8569 B( 16-C , 21-H ) :   0.9261 B( 17-C , 18-C ) :   0.9220
B( 17-C , 22-H ) :   0.9317 B( 17-C , 23-O ) :   0.8997 B( 18-C , 19-C ) :   0.9379
B( 18-C , 24-H ) :   0.9424 B( 18-C , 25-H ) :   0.9403 B( 19-C , 20-O ) :   0.8478
B( 19-C , 26-H ) :   0.9302 B( 19-C , 27-H ) :   0.9373 B( 23-O , 28-H ) :   0.7984

FINAL SINGLE POINT ENERGY      -652.856069380046

DIPOLE MOMENT
-------------
                                X             Y             Z
Electronic contribution:     -1.95918      -2.68653       1.94673
Nuclear contribution   :      2.02064       2.88974      -3.22222
                        -----------------------------------------
Total Dipole Moment    :      0.06147       0.20321      -1.27549
                        -----------------------------------------
Magnitude (a.u.)       :      1.29304
Magnitude (Debye)      :      3.28664

Rotational constants in cm-1:     0.059373     0.013548     0.012568
Rotational constants in MHz :  1779.959908   406.164850   376.783234

                             ****ORCA TERMINATED NORMALLY****
TOTAL RUN TIME: 0 days 0 hours 23 minutes 32 seconds 655 msec
