                         Program Version 4.2.0 -  RELEASE  -
|  1> # Test redundant internal optimization
|  2> #
|  3> ! RKS B3LYP  Opt TightSCF SmallPrint
|  4>
|  5> %basis
|  6>         Basis "6-31G"
|  7> end
|  8>
|  9> %geom
| 10> Constraints
| 11> { D 4  0  15  12  240.0   C } # D for Dihedral angle
| 12> { D 0  15  12  16  330.0   C } # D for Dihedral angle
| 13> { D 0  4  3  2   C } # D for Dihedral angle
| 14> { D 4  3  2  1   C } # D for Dihedral angle
| 15> { D 3  2  1  0   C } # D for Dihedral angle
| 16> { D 2  1  0  4   C } # D for Dihedral angle
| 17> { D 1  0  4  3   C } # D for Dihedral angle
| 18> { D 16  20  19  18   C } # D for Dihedral angle
| 19> { D 20  19  18  17   C } # D for Dihedral angle
| 20> { D 19  18  17  16   C } # D for Dihedral angle
| 21> { D 18  17  16  20   C } # D for Dihedral angle
| 22> { D 17  16  20  19   C } # D for Dihedral angle
| 23> { D 15  12  16  20   C } # D for Dihedral angle
| 24> end
| 25> end
| 26>
| 27>
| 28> #%pal
| 29> #nprocs 8
| 30> #end
| 31>
| 32> * xyz 0 1
| 33> C  -21.048   26.222   46.251
| 34> C  -20.361   27.558   45.944
| 35> C  -20.329   28.222   47.341
| 36> C  -20.110   27.022   48.296
| 37> O  -20.473   25.807   47.535
| 38> H  -20.833   25.428   45.533
| 39> H  -19.344   27.382   45.576
| 40> H  -20.898   28.157   45.201
| 41> H  -19.543   28.978   47.434
| 42> H  -21.289   28.710   47.548
| 43> H  -20.733   27.082   49.195
| 44> H  -19.064   26.913   48.597
| 45> C  -23.430   25.483   45.442
| 46> H  -23.656   24.543   45.962
| 47> H  -24.379   25.970   45.185
| 48> O  -22.586   26.394   46.375
| 49> C  -22.699   25.142   44.114
| 50> C  -23.603   24.340   43.171
| 51> C  -24.497   25.452   42.573
| 52> C  -23.534   26.661   42.472
| 53> O  -22.395   26.367   43.367
| 54> H  -21.745   24.662   44.343
| 55> H  -23.002   23.863   42.388
| 56> O  -24.419   23.237   43.900
| 57> H  -24.925   25.177   41.604
| 58> H  -25.327   25.675   43.255
| 59> H  -24.005   27.599   42.787
| 60> H  -23.129   26.788   41.464
| 61> H  -25.030   23.690   44.689
| 62> *
| 63>
| 64>                          ****END OF INPUT****
 Total Charge           Charge          ....    0
 Multiplicity           Mult            ....    1
 Number of Electrons    NEL             ....  102
FINAL SINGLE POINT ENERGY      -652.821724494743
FINAL SINGLE POINT ENERGY      -652.845725398522
FINAL SINGLE POINT ENERGY      -652.850311197123
FINAL SINGLE POINT ENERGY      -652.852533169596
FINAL SINGLE POINT ENERGY      -652.852761299051
FINAL SINGLE POINT ENERGY      -652.852827065854
FINAL SINGLE POINT ENERGY      -652.852832905912
FINAL SINGLE POINT ENERGY      -652.852834294202
                    ***********************HURRAY********************

CARTESIAN COORDINATES (ANGSTROEM)
---------------------------------
  C    -20.908467   26.209353   46.211489
  C    -20.322540   27.603196   45.988443
  C    -20.435691   28.225081   47.399649
  C    -20.176294   27.020538   48.331831
  O    -20.390330   25.810337   47.500017
  H    -20.588196   25.452294   45.497605
  H    -19.272277   27.512032   45.685875
  H    -20.868783   28.148110   45.217160
  H    -19.722682   29.039052   47.561794
  H    -21.447459   28.614077   47.548336
  H    -20.856821   26.984724   49.186672
  H    -19.143131   26.976051   48.690490
  C    -23.233435   25.525542   45.437428
  H    -23.511836   24.611616   45.982856
  H    -24.126606   26.147806   45.321761
  O    -22.351616   26.324859   46.275523
  C    -22.694465   25.108855   44.066915
  C    -23.725751   24.330139   43.228479
  C    -24.585584   25.484629   42.624648
  C    -23.541222   26.600018   42.395977
  O    -22.361072   26.261015   43.232406
  H    -21.775116   24.529003   44.174217
  H    -23.204475   23.793080   42.432917
  O    -24.468091   23.306557   43.927807
  H    -25.091531   25.180667   41.704993
  H    -25.351955   25.791347   43.348070
  H    -23.904992   27.591501   42.681910
  H    -23.195015   26.636981   41.358935
  H    -25.130567   23.705540   44.527797

 Multiplicity           Mult            ....    1
 Number of Electrons    NEL             ....  102
 Basis Dimension        Dim             ....  149

ORBITAL ENERGIES
----------------

  NO   OCC          E(Eh)            E(eV)
   0   2.0000     -19.154842      -521.2297
   1   2.0000     -19.146735      -521.0092
   2   2.0000     -19.132740      -520.6283
   3   2.0000     -19.127762      -520.4929
   4   2.0000     -10.269330      -279.4427
   5   2.0000     -10.252258      -278.9781
   6   2.0000     -10.239147      -278.6214
   7   2.0000     -10.237805      -278.5848
   8   2.0000     -10.232693      -278.4457
   9   2.0000     -10.214905      -277.9617
  10   2.0000     -10.201304      -277.5916
  11   2.0000     -10.174865      -276.8721
  12   2.0000     -10.171250      -276.7738
  13   2.0000      -1.044527       -28.4230
  14   2.0000      -1.037329       -28.2271
  15   2.0000      -1.022688       -27.8288
  16   2.0000      -0.983440       -26.7608
  17   2.0000      -0.789509       -21.4836
  18   2.0000      -0.777271       -21.1506
  19   2.0000      -0.767256       -20.8781
  20   2.0000      -0.729238       -19.8436
  21   2.0000      -0.680757       -18.5243
  22   2.0000      -0.618326       -16.8255
  23   2.0000      -0.605702       -16.4820
  24   2.0000      -0.587277       -15.9806
  25   2.0000      -0.560587       -15.2543
  26   2.0000      -0.537393       -14.6232
  27   2.0000      -0.514849       -14.0098
  28   2.0000      -0.494033       -13.4433
  29   2.0000      -0.480655       -13.0793
  30   2.0000      -0.468855       -12.7582
  31   2.0000      -0.453421       -12.3382
  32   2.0000      -0.441939       -12.0258
  33   2.0000      -0.434737       -11.8298
  34   2.0000      -0.432018       -11.7558
  35   2.0000      -0.424327       -11.5465
  36   2.0000      -0.407836       -11.0978
  37   2.0000      -0.392281       -10.6745
  38   2.0000      -0.384872       -10.4729
  39   2.0000      -0.366762        -9.9801
  40   2.0000      -0.357242        -9.7211
  41   2.0000      -0.347245        -9.4490
  42   2.0000      -0.341259        -9.2861
  43   2.0000      -0.335929        -9.1411
  44   2.0000      -0.322454        -8.7744
  45   2.0000      -0.306204        -8.3322
  46   2.0000      -0.298721        -8.1286
  47   2.0000      -0.277717        -7.5571
  48   2.0000      -0.260806        -7.0969
  49   2.0000      -0.245642        -6.6843
  50   2.0000      -0.234633        -6.3847
  51   0.0000       0.047193         1.2842
  52   0.0000       0.072711         1.9786
  53   0.0000       0.082993         2.2584
  54   0.0000       0.096328         2.6212
  55   0.0000       0.099724         2.7136

MULLIKEN ATOMIC CHARGES
-----------------------
   0 C :    0.288336
   1 C :   -0.246966
   2 C :   -0.300271
   3 C :    0.000083
   4 O :   -0.508802
   5 H :    0.145767
   6 H :    0.136977
   7 H :    0.160763
   8 H :    0.135704
   9 H :    0.159093
  10 H :    0.146723
  11 H :    0.136771
  12 C :    0.018146
  13 H :    0.137094
  14 H :    0.136383
  15 O :   -0.529231
  16 C :    0.048237
  17 C :    0.088237
  18 C :   -0.324517
  19 C :   -0.007066
  20 O :   -0.517950
  21 H :    0.166315
  22 H :    0.169604
  23 O :   -0.595837
  24 H :    0.160134
  25 H :    0.137853
  26 H :    0.147234
  27 H :    0.152739
  28 H :    0.358447
Sum of atomic charges:   -0.0000000

LOEWDIN ATOMIC CHARGES
----------------------
   0 C :    0.179514
   1 C :   -0.217717
   2 C :   -0.217783
   3 C :   -0.027061
   4 O :   -0.320558
   5 H :    0.100421
   6 H :    0.109966
   7 H :    0.125385
   8 H :    0.111067
   9 H :    0.117614
  10 H :    0.104962
  11 H :    0.099574
  12 C :   -0.041818
  13 H :    0.100485
  14 H :    0.104231
  15 O :   -0.329023
  16 C :    0.001685
  17 C :    0.038711
  18 C :   -0.241162
  19 C :   -0.027647
  20 O :   -0.325075
  21 H :    0.114846
  22 H :    0.120025
  23 O :   -0.403048
  24 H :    0.124231
  25 H :    0.105887
  26 H :    0.104973
  27 H :    0.107694
  28 H :    0.279621

  Mayer bond orders larger than 0.100000
B(  0-C ,  1-C ) :   0.9445 B(  0-C ,  4-O ) :   0.9152 B(  0-C ,  5-H ) :   0.9130
B(  0-C , 15-O ) :   0.8390 B(  1-C ,  2-C ) :   0.9557 B(  1-C ,  6-H ) :   0.9386
B(  1-C ,  7-H ) :   0.9343 B(  2-C ,  3-C ) :   0.9539 B(  2-C ,  8-H ) :   0.9458
B(  2-C ,  9-H ) :   0.9443 B(  3-C ,  4-O ) :   0.8422 B(  3-C , 10-H ) :   0.9355
B(  3-C , 11-H ) :   0.9402 B( 12-C , 13-H ) :   0.9024 B( 12-C , 14-H ) :   0.9338
B( 12-C , 15-O ) :   0.8615 B( 12-C , 16-C ) :   0.9002 B( 16-C , 17-C ) :   0.8670
B( 16-C , 20-O ) :   0.8535 B( 16-C , 21-H ) :   0.9204 B( 17-C , 18-C ) :   0.9207
B( 17-C , 22-H ) :   0.9330 B( 17-C , 23-O ) :   0.9066 B( 18-C , 19-C ) :   0.9392
B( 18-C , 24-H ) :   0.9415 B( 18-C , 25-H ) :   0.9406 B( 19-C , 20-O ) :   0.8410
B( 19-C , 26-H ) :   0.9324 B( 19-C , 27-H ) :   0.9378 B( 23-O , 28-H ) :   0.7961

FINAL SINGLE POINT ENERGY      -652.852834223229

DIPOLE MOMENT
-------------
                                X             Y             Z
Electronic contribution:      0.12563      -4.16257       0.33536
Nuclear contribution   :     -0.90104       4.92414      -1.05335
                        -----------------------------------------
Total Dipole Moment    :     -0.77540       0.76158      -0.71799
                        -----------------------------------------
Magnitude (a.u.)       :      1.30260
Magnitude (Debye)      :      3.31094

Rotational constants in cm-1:     0.059606     0.013028     0.011607
Rotational constants in MHz :  1786.931119   390.571407   347.961709

                             ****ORCA TERMINATED NORMALLY****
TOTAL RUN TIME: 0 days 0 hours 26 minutes 14 seconds 215 msec
