                         Program Version 4.2.0 -  RELEASE  -
|  1> # Test redundant internal optimization
|  2> #
|  3> ! RKS B3LYP  Opt TightSCF SmallPrint
|  4>
|  5> %basis
|  6>         Basis "6-31G"
|  7> end
|  8>
|  9> %geom
| 10> Constraints
| 11> { D 4  0  15  12  240.0   C } # D for Dihedral angle
| 12> { D 0  15  12  16  105.0   C } # D for Dihedral angle
| 13> { D 0  4  3  2   C } # D for Dihedral angle
| 14> { D 4  3  2  1   C } # D for Dihedral angle
| 15> { D 3  2  1  0   C } # D for Dihedral angle
| 16> { D 2  1  0  4   C } # D for Dihedral angle
| 17> { D 1  0  4  3   C } # D for Dihedral angle
| 18> { D 16  20  19  18   C } # D for Dihedral angle
| 19> { D 20  19  18  17   C } # D for Dihedral angle
| 20> { D 19  18  17  16   C } # D for Dihedral angle
| 21> { D 18  17  16  20   C } # D for Dihedral angle
| 22> { D 17  16  20  19   C } # D for Dihedral angle
| 23> { D 15  12  16  20   C } # D for Dihedral angle
| 24> end
| 25> end
| 26>
| 27>
| 28> #%pal
| 29> #nprocs 8
| 30> #end
| 31>
| 32> * xyz 0 1
| 33> C  -21.048   26.222   46.251
| 34> C  -20.361   27.558   45.944
| 35> C  -20.329   28.222   47.341
| 36> C  -20.110   27.022   48.296
| 37> O  -20.473   25.807   47.535
| 38> H  -20.833   25.428   45.533
| 39> H  -19.344   27.382   45.576
| 40> H  -20.898   28.157   45.201
| 41> H  -19.543   28.978   47.434
| 42> H  -21.289   28.710   47.548
| 43> H  -20.733   27.082   49.195
| 44> H  -19.064   26.913   48.597
| 45> C  -23.430   25.483   45.442
| 46> H  -24.220   26.080   44.970
| 47> H  -22.801   25.058   44.649
| 48> O  -22.586   26.394   46.375
| 49> C  -24.097   24.302   46.200
| 50> C  -24.824   23.360   45.233
| 51> C  -23.651   22.531   44.660
| 52> C  -22.689   22.402   45.868
| 53> O  -23.078   23.455   46.830
| 54> H  -24.724   24.699   47.001
| 55> H  -25.519   22.717   45.785
| 56> O  -25.623   24.113   44.134
| 57> H  -23.968   21.557   44.273
| 58> H  -23.169   23.077   43.840
| 59> H  -21.640   22.544   45.586
| 60> H  -22.791   21.442   46.382
| 61> H  -24.948   24.763   43.567
| 62> *
| 63>
| 64>                          ****END OF INPUT****
 Total Charge           Charge          ....    0
 Multiplicity           Mult            ....    1
 Number of Electrons    NEL             ....  102
FINAL SINGLE POINT ENERGY      -652.826283439191
FINAL SINGLE POINT ENERGY      -652.849452433390
FINAL SINGLE POINT ENERGY      -652.853853367431
FINAL SINGLE POINT ENERGY      -652.854587417235
FINAL SINGLE POINT ENERGY      -652.854704052356
FINAL SINGLE POINT ENERGY      -652.854730660202
FINAL SINGLE POINT ENERGY      -652.854734796132
                    ***********************HURRAY********************

CARTESIAN COORDINATES (ANGSTROEM)
---------------------------------
  C    -21.003223   26.213416   46.192051
  C    -20.394144   27.597106   45.968762
  C    -20.444357   28.203834   47.392664
  C    -20.180121   26.978891   48.295334
  O    -20.451451   25.789132   47.451114
  H    -20.737781   25.452737   45.452020
  H    -19.356469   27.489306   45.629833
  H    -20.949358   28.180623   45.230945
  H    -19.708255   28.999813   47.539291
  H    -21.441813   28.612298   47.580966
  H    -20.832127   26.941313   49.171273
  H    -19.136510   26.904918   48.616525
  C    -23.266446   25.541278   45.387086
  H    -24.042448   26.198367   44.979395
  H    -22.656754   25.162041   44.550975
  O    -22.445804   26.350393   46.266194
  C    -23.929462   24.392582   46.148238
  C    -24.787820   23.462868   45.273510
  C    -23.716881   22.498966   44.683273
  C    -22.709102   22.356996   45.845435
  O    -22.957391   23.496342   46.766100
  H    -24.499717   24.824398   46.975367
  H    -25.487449   22.913803   45.906954
  O    -25.625745   24.124701   44.293982
  H    -24.145867   21.543610   44.371030
  H    -23.252314   22.962666   43.802645
  H    -21.666222   22.384959   45.514923
  H    -22.869019   21.440872   46.421725
  H    -25.088949   24.439773   43.538392

 Multiplicity           Mult            ....    1
 Number of Electrons    NEL             ....  102
 Basis Dimension        Dim             ....  149

ORBITAL ENERGIES
----------------

  NO   OCC          E(Eh)            E(eV)
   0   2.0000     -19.149696      -521.0897
   1   2.0000     -19.136176      -520.7218
   2   2.0000     -19.134975      -520.6891
   3   2.0000     -19.129631      -520.5437
   4   2.0000     -10.274103      -279.5725
   5   2.0000     -10.244309      -278.7618
   6   2.0000     -10.232323      -278.4357
   7   2.0000     -10.228749      -278.3384
   8   2.0000     -10.226103      -278.2664
   9   2.0000     -10.216567      -278.0069
  10   2.0000     -10.195481      -277.4331
  11   2.0000     -10.179424      -276.9962
  12   2.0000     -10.179213      -276.9905
  13   2.0000      -1.045726       -28.4557
  14   2.0000      -1.032267       -28.0894
  15   2.0000      -1.013823       -27.5875
  16   2.0000      -0.988449       -26.8971
  17   2.0000      -0.783506       -21.3203
  18   2.0000      -0.779783       -21.2190
  19   2.0000      -0.763919       -20.7873
  20   2.0000      -0.726317       -19.7641
  21   2.0000      -0.678786       -18.4707
  22   2.0000      -0.610995       -16.6260
  23   2.0000      -0.592200       -16.1146
  24   2.0000      -0.588686       -16.0190
  25   2.0000      -0.576842       -15.6967
  26   2.0000      -0.527703       -14.3595
  27   2.0000      -0.509159       -13.8549
  28   2.0000      -0.497220       -13.5300
  29   2.0000      -0.483424       -13.1546
  30   2.0000      -0.463466       -12.6116
  31   2.0000      -0.453546       -12.3416
  32   2.0000      -0.447746       -12.1838
  33   2.0000      -0.429437       -11.6856
  34   2.0000      -0.428396       -11.6573
  35   2.0000      -0.415350       -11.3023
  36   2.0000      -0.405956       -11.0466
  37   2.0000      -0.391161       -10.6440
  38   2.0000      -0.379991       -10.3401
  39   2.0000      -0.364730        -9.9248
  40   2.0000      -0.352499        -9.5920
  41   2.0000      -0.349613        -9.5135
  42   2.0000      -0.344438        -9.3726
  43   2.0000      -0.329939        -8.9781
  44   2.0000      -0.313111        -8.5202
  45   2.0000      -0.308670        -8.3994
  46   2.0000      -0.301249        -8.1974
  47   2.0000      -0.269918        -7.3448
  48   2.0000      -0.262242        -7.1360
  49   2.0000      -0.248154        -6.7526
  50   2.0000      -0.229609        -6.2480
  51   0.0000       0.048966         1.3324
  52   0.0000       0.067898         1.8476
  53   0.0000       0.090739         2.4691
  54   0.0000       0.098011         2.6670
  55   0.0000       0.108490         2.9522

MULLIKEN ATOMIC CHARGES
-----------------------
   0 C :    0.297286
   1 C :   -0.253767
   2 C :   -0.300670
   3 C :   -0.000013
   4 O :   -0.491868
   5 H :    0.133350
   6 H :    0.138933
   7 H :    0.142588
   8 H :    0.138098
   9 H :    0.162615
  10 H :    0.152787
  11 H :    0.137136
  12 C :   -0.027686
  13 H :    0.149490
  14 H :    0.108472
  15 O :   -0.511172
  16 C :    0.105304
  17 C :    0.086167
  18 C :   -0.322491
  19 C :   -0.010096
  20 O :   -0.499298
  21 H :    0.164668
  22 H :    0.167810
  23 O :   -0.601304
  24 H :    0.157069
  25 H :    0.127071
  26 H :    0.144742
  27 H :    0.150534
  28 H :    0.354244
Sum of atomic charges:   -0.0000000

LOEWDIN ATOMIC CHARGES
----------------------
   0 C :    0.180379
   1 C :   -0.222887
   2 C :   -0.217039
   3 C :   -0.026539
   4 O :   -0.307009
   5 H :    0.094926
   6 H :    0.110311
   7 H :    0.116170
   8 H :    0.112129
   9 H :    0.119338
  10 H :    0.108444
  11 H :    0.099927
  12 C :   -0.046142
  13 H :    0.110660
  14 H :    0.083838
  15 O :   -0.323810
  16 C :    0.012784
  17 C :    0.034196
  18 C :   -0.241259
  19 C :   -0.030239
  20 O :   -0.310153
  21 H :    0.120544
  22 H :    0.120001
  23 O :   -0.408404
  24 H :    0.122670
  25 H :    0.100797
  26 H :    0.102856
  27 H :    0.106787
  28 H :    0.276726

  Mayer bond orders larger than 0.100000
B(  0-C ,  1-C ) :   0.9403 B(  0-C ,  4-O ) :   0.9361 B(  0-C ,  5-H ) :   0.9193
B(  0-C , 15-O ) :   0.8355 B(  1-C ,  2-C ) :   0.9583 B(  1-C ,  6-H ) :   0.9374
B(  1-C ,  7-H ) :   0.9391 B(  2-C ,  3-C ) :   0.9533 B(  2-C ,  8-H ) :   0.9456
B(  2-C ,  9-H ) :   0.9437 B(  3-C ,  4-O ) :   0.8423 B(  3-C , 10-H ) :   0.9343
B(  3-C , 11-H ) :   0.9399 B( 12-C , 13-H ) :   0.9194 B( 12-C , 14-H ) :   0.9213
B( 12-C , 15-O ) :   0.8719 B( 12-C , 16-C ) :   0.8892 B( 16-C , 17-C ) :   0.8688
B( 16-C , 20-O ) :   0.8735 B( 16-C , 21-H ) :   0.9301 B( 17-C , 18-C ) :   0.9220
B( 17-C , 22-H ) :   0.9325 B( 17-C , 23-O ) :   0.8940 B( 18-C , 19-C ) :   0.9374
B( 18-C , 24-H ) :   0.9420 B( 18-C , 25-H ) :   0.9416 B( 19-C , 20-O ) :   0.8517
B( 19-C , 26-H ) :   0.9312 B( 19-C , 27-H ) :   0.9376 B( 23-O , 28-H ) :   0.7994

FINAL SINGLE POINT ENERGY      -652.854735365749

DIPOLE MOMENT
-------------
                                X             Y             Z
Electronic contribution:     -2.89035      -1.83970       1.54959
Nuclear contribution   :      3.42574       1.96037      -2.74061
                        -----------------------------------------
Total Dipole Moment    :      0.53539       0.12068      -1.19102
                        -----------------------------------------
Magnitude (a.u.)       :      1.31138
Magnitude (Debye)      :      3.33327

Rotational constants in cm-1:     0.058985     0.013182     0.011892
Rotational constants in MHz :  1768.334980   395.177436   356.511392

                             ****ORCA TERMINATED NORMALLY****
TOTAL RUN TIME: 0 days 0 hours 25 minutes 2 seconds 310 msec
