                         Program Version 4.2.0 -  RELEASE  -
|  1> # Test redundant internal optimization
|  2> #
|  3> ! RKS B3LYP  Opt TightSCF SmallPrint
|  4>
|  5> %basis
|  6>         Basis "6-31G"
|  7> end
|  8>
|  9> %geom
| 10> Constraints
| 11> { D 4  0  15  12  165.0   C } # D for Dihedral angle
| 12> { D 0  15  12  16  45.0   C } # D for Dihedral angle
| 13> { D 0  4  3  2   C } # D for Dihedral angle
| 14> { D 4  3  2  1   C } # D for Dihedral angle
| 15> { D 3  2  1  0   C } # D for Dihedral angle
| 16> { D 2  1  0  4   C } # D for Dihedral angle
| 17> { D 1  0  4  3   C } # D for Dihedral angle
| 18> { D 16  20  19  18   C } # D for Dihedral angle
| 19> { D 20  19  18  17   C } # D for Dihedral angle
| 20> { D 19  18  17  16   C } # D for Dihedral angle
| 21> { D 18  17  16  20   C } # D for Dihedral angle
| 22> { D 17  16  20  19   C } # D for Dihedral angle
| 23> { D 15  12  16  20   C } # D for Dihedral angle
| 24> end
| 25> end
| 26>
| 27>
| 28> #%pal
| 29> #nprocs 8
| 30> #end
| 31>
| 32> * xyz 0 1
| 33> C  -21.048   26.222   46.251
| 34> C  -20.361   27.558   45.944
| 35> C  -20.329   28.222   47.341
| 36> C  -20.110   27.022   48.296
| 37> O  -20.473   25.807   47.535
| 38> H  -20.833   25.428   45.533
| 39> H  -19.344   27.382   45.576
| 40> H  -20.898   28.157   45.201
| 41> H  -19.543   28.978   47.434
| 42> H  -21.289   28.710   47.548
| 43> H  -20.733   27.082   49.195
| 44> H  -19.064   26.913   48.597
| 45> C  -23.260   27.170   45.210
| 46> H  -24.345   27.016   45.253
| 47> H  -23.063   28.246   45.301
| 48> O  -22.586   26.394   46.375
| 49> C  -22.755   26.714   43.813
| 50> C  -23.142   25.257   43.531
| 51> C  -24.626   25.401   43.119
| 52> C  -24.652   26.754   42.363
| 53> O  -23.423   27.477   42.753
| 54> H  -21.687   26.922   43.733
| 55> H  -22.546   24.865   42.699
| 56> O  -22.944   24.324   44.757
| 57> H  -24.977   24.570   42.499
| 58> H  -25.262   25.445   44.011
| 59> H  -25.524   27.363   42.623
| 60> H  -24.620   26.626   41.278
| 61> H  -23.532   24.699   45.602
| 62> *
| 63>
| 64>                          ****END OF INPUT****
 Total Charge           Charge          ....    0
 Multiplicity           Mult            ....    1
 Number of Electrons    NEL             ....  102
FINAL SINGLE POINT ENERGY      -652.827375897896
FINAL SINGLE POINT ENERGY      -652.851958185419
FINAL SINGLE POINT ENERGY      -652.857433456974
FINAL SINGLE POINT ENERGY      -652.858886896492
FINAL SINGLE POINT ENERGY      -652.859113869296
FINAL SINGLE POINT ENERGY      -652.859186808286
FINAL SINGLE POINT ENERGY      -652.859195050835
FINAL SINGLE POINT ENERGY      -652.859196627175
                    ***********************HURRAY********************

CARTESIAN COORDINATES (ANGSTROEM)
---------------------------------
  C    -21.045156   26.224816   46.248413
  C    -20.238639   27.489778   45.960626
  C    -20.318630   28.240676   47.314950
  C    -20.295534   27.089154   48.340350
  O    -20.659285   25.866526   47.577777
  H    -20.857776   25.366668   45.601679
  H    -19.205348   27.199995   45.736823
  H    -20.609412   28.086747   45.124702
  H    -19.488773   28.940186   47.452612
  H    -21.256275   28.801252   47.379568
  H    -21.014253   27.218364   49.153102
  H    -19.300864   26.909582   48.758143
  C    -23.168554   27.177508   45.196924
  H    -24.233789   27.012653   45.377844
  H    -22.979815   28.257089   45.265608
  O    -22.501033   26.476276   46.300175
  C    -22.771287   26.710608   43.786219
  C    -23.158499   25.252937   43.475473
  C    -24.678655   25.389146   43.164723
  C    -24.770893   26.761395   42.465615
  O    -23.514986   27.496914   42.804488
  H    -21.713782   26.903925   43.592427
  H    -22.624481   24.912719   42.584341
  O    -22.834949   24.293020   44.504806
  H    -25.038694   24.568864   42.538056
  H    -25.244110   25.366272   44.102864
  H    -25.626328   27.359839   42.793852
  H    -24.796083   26.676485   41.375382
  H    -23.023119   24.674606   45.393460

 Multiplicity           Mult            ....    1
 Number of Electrons    NEL             ....  102
 Basis Dimension        Dim             ....  149

ORBITAL ENERGIES
----------------

  NO   OCC          E(Eh)            E(eV)
   0   2.0000     -19.152216      -521.1583
   1   2.0000     -19.147534      -521.0309
   2   2.0000     -19.144614      -520.9514
   3   2.0000     -19.134898      -520.6870
   4   2.0000     -10.283108      -279.8176
   5   2.0000     -10.241651      -278.6895
   6   2.0000     -10.240349      -278.6541
   7   2.0000     -10.238206      -278.5958
   8   2.0000     -10.234308      -278.4897
   9   2.0000     -10.228428      -278.3297
  10   2.0000     -10.193675      -277.3840
  11   2.0000     -10.192087      -277.3408
  12   2.0000     -10.189542      -277.2715
  13   2.0000      -1.057945       -28.7882
  14   2.0000      -1.033029       -28.1102
  15   2.0000      -1.011427       -27.5223
  16   2.0000      -0.996049       -27.1039
  17   2.0000      -0.791341       -21.5335
  18   2.0000      -0.780424       -21.2364
  19   2.0000      -0.769864       -20.9491
  20   2.0000      -0.739866       -20.1328
  21   2.0000      -0.684372       -18.6227
  22   2.0000      -0.609549       -16.5867
  23   2.0000      -0.607567       -16.5327
  24   2.0000      -0.603702       -16.4276
  25   2.0000      -0.570089       -15.5129
  26   2.0000      -0.536868       -14.6089
  27   2.0000      -0.515742       -14.0341
  28   2.0000      -0.500105       -13.6086
  29   2.0000      -0.491603       -13.3772
  30   2.0000      -0.472559       -12.8590
  31   2.0000      -0.461476       -12.5574
  32   2.0000      -0.448819       -12.2130
  33   2.0000      -0.435942       -11.8626
  34   2.0000      -0.428566       -11.6619
  35   2.0000      -0.419029       -11.4024
  36   2.0000      -0.406600       -11.0641
  37   2.0000      -0.404715       -11.0129
  38   2.0000      -0.382651       -10.4125
  39   2.0000      -0.376838       -10.2543
  40   2.0000      -0.363873        -9.9015
  41   2.0000      -0.361326        -9.8322
  42   2.0000      -0.355086        -9.6624
  43   2.0000      -0.340507        -9.2657
  44   2.0000      -0.322233        -8.7684
  45   2.0000      -0.309160        -8.4127
  46   2.0000      -0.307372        -8.3640
  47   2.0000      -0.271204        -7.3798
  48   2.0000      -0.262118        -7.1326
  49   2.0000      -0.261314        -7.1107
  50   2.0000      -0.244798        -6.6613
  51   0.0000       0.057033         1.5520
  52   0.0000       0.069379         1.8879
  53   0.0000       0.085196         2.3183
  54   0.0000       0.095745         2.6054
  55   0.0000       0.105275         2.8647

MULLIKEN ATOMIC CHARGES
-----------------------
   0 C :    0.289110
   1 C :   -0.295440
   2 C :   -0.299341
   3 C :   -0.001521
   4 O :   -0.500002
   5 H :    0.171300
   6 H :    0.155704
   7 H :    0.151525
   8 H :    0.145857
   9 H :    0.158318
  10 H :    0.155784
  11 H :    0.145654
  12 C :   -0.046739
  13 H :    0.160617
  14 H :    0.154474
  15 O :   -0.533871
  16 C :    0.053602
  17 C :    0.103280
  18 C :   -0.307060
  19 C :   -0.026749
  20 O :   -0.520929
  21 H :    0.155347
  22 H :    0.158708
  23 O :   -0.617676
  24 H :    0.156025
  25 H :    0.146496
  26 H :    0.146085
  27 H :    0.156119
  28 H :    0.385324
Sum of atomic charges:   -0.0000000

LOEWDIN ATOMIC CHARGES
----------------------
   0 C :    0.170987
   1 C :   -0.233075
   2 C :   -0.215957
   3 C :   -0.024951
   4 O :   -0.298486
   5 H :    0.110192
   6 H :    0.120743
   7 H :    0.116638
   8 H :    0.116293
   9 H :    0.115946
  10 H :    0.110335
  11 H :    0.104698
  12 C :   -0.058646
  13 H :    0.115341
  14 H :    0.105865
  15 O :   -0.344014
  16 C :    0.001922
  17 C :    0.037135
  18 C :   -0.238896
  19 C :   -0.033241
  20 O :   -0.322311
  21 H :    0.110212
  22 H :    0.113733
  23 O :   -0.416126
  24 H :    0.123637
  25 H :    0.111646
  26 H :    0.103992
  27 H :    0.109005
  28 H :    0.287383

  Mayer bond orders larger than 0.100000
B(  0-C ,  1-C ) :   0.9335 B(  0-C ,  4-O ) :   0.9363 B(  0-C ,  5-H ) :   0.9040
B(  0-C , 15-O ) :   0.7924 B(  1-C ,  2-C ) :   0.9471 B(  1-C ,  6-H ) :   0.9348
B(  1-C ,  7-H ) :   0.9258 B(  2-C ,  3-C ) :   0.9550 B(  2-C ,  8-H ) :   0.9448
B(  2-C ,  9-H ) :   0.9452 B(  3-C ,  4-O ) :   0.8318 B(  3-C , 10-H ) :   0.9347
B(  3-C , 11-H ) :   0.9396 B( 12-C , 13-H ) :   0.9348 B( 12-C , 14-H ) :   0.9185
B( 12-C , 15-O ) :   0.8220 B( 12-C , 16-C ) :   0.8835 B( 16-C , 17-C ) :   0.8958
B( 16-C , 20-O ) :   0.8443 B( 16-C , 21-H ) :   0.9240 B( 17-C , 18-C ) :   0.9077
B( 17-C , 22-H ) :   0.9340 B( 17-C , 23-O ) :   0.9216 B( 18-C , 19-C ) :   0.9414
B( 18-C , 24-H ) :   0.9430 B( 18-C , 25-H ) :   0.9422 B( 19-C , 20-O ) :   0.8338
B( 19-C , 26-H ) :   0.9329 B( 19-C , 27-H ) :   0.9374 B( 23-O , 28-H ) :   0.7421

FINAL SINGLE POINT ENERGY      -652.859196711490

DIPOLE MOMENT
-------------
                                X             Y             Z
Electronic contribution:     -0.03944      -3.21802       0.26458
Nuclear contribution   :     -0.03413       4.24740      -0.50743
                        -----------------------------------------
Total Dipole Moment    :     -0.07358       1.02938      -0.24285
                        -----------------------------------------
Magnitude (a.u.)       :      1.06019
Magnitude (Debye)      :      2.69479

Rotational constants in cm-1:     0.061182     0.014406     0.012902
Rotational constants in MHz :  1834.198234   431.888586   386.787769

                             ****ORCA TERMINATED NORMALLY****
TOTAL RUN TIME: 0 days 0 hours 49 minutes 26 seconds 252 msec
