                         Program Version 4.2.0 -  RELEASE  -
|  1> # Test redundant internal optimization
|  2> #
|  3> ! RKS B3LYP  Opt TightSCF SmallPrint
|  4>
|  5> %basis
|  6>         Basis "6-31G"
|  7> end
|  8>
|  9> %geom
| 10> Constraints
| 11> { D 4  0  15  12  210.0   C } # D for Dihedral angle
| 12> { D 0  15  12  16  285.0   C } # D for Dihedral angle
| 13> { D 0  4  3  2   C } # D for Dihedral angle
| 14> { D 4  3  2  1   C } # D for Dihedral angle
| 15> { D 3  2  1  0   C } # D for Dihedral angle
| 16> { D 2  1  0  4   C } # D for Dihedral angle
| 17> { D 1  0  4  3   C } # D for Dihedral angle
| 18> { D 16  20  19  18   C } # D for Dihedral angle
| 19> { D 20  19  18  17   C } # D for Dihedral angle
| 20> { D 19  18  17  16   C } # D for Dihedral angle
| 21> { D 18  17  16  20   C } # D for Dihedral angle
| 22> { D 17  16  20  19   C } # D for Dihedral angle
| 23> { D 15  12  16  20   C } # D for Dihedral angle
| 24> end
| 25> end
| 26>
| 27>
| 28> #%pal
| 29> #nprocs 8
| 30> #end
| 31>
| 32> * xyz 0 1
| 33> C  -21.048   26.222   46.251
| 34> C  -20.361   27.558   45.944
| 35> C  -20.329   28.222   47.341
| 36> C  -20.110   27.022   48.296
| 37> O  -20.473   25.807   47.535
| 38> H  -20.833   25.428   45.533
| 39> H  -19.344   27.382   45.576
| 40> H  -20.898   28.157   45.201
| 41> H  -19.543   28.978   47.434
| 42> H  -21.289   28.710   47.548
| 43> H  -20.733   27.082   49.195
| 44> H  -19.064   26.913   48.597
| 45> C  -23.389   26.110   45.076
| 46> H  -23.022   25.183   44.619
| 47> H  -24.455   25.981   45.304
| 48> O  -22.586   26.394   46.375
| 49> C  -23.264   27.254   44.031
| 50> C  -21.824   27.391   43.526
| 51> C  -21.739   26.236   42.501
| 52> C  -23.162   26.204   41.889
| 53> O  -24.040   26.934   42.828
| 54> H  -23.686   28.169   44.450
| 55> O  -21.635   28.764   42.824
| 56> H  -21.078   27.308   44.324
| 57> H  -20.963   26.395   41.745
| 58> H  -21.517   25.293   43.014
| 59> H  -23.541   25.185   41.763
| 60> H  -23.215   26.722   40.928
| 61> H  -22.372   28.870   42.019
| 62> *
| 63>
| 64>                          ****END OF INPUT****
 Total Charge           Charge          ....    0
 Multiplicity           Mult            ....    1
 Number of Electrons    NEL             ....  102
FINAL SINGLE POINT ENERGY      -652.791587712941
FINAL SINGLE POINT ENERGY      -652.828640424412
FINAL SINGLE POINT ENERGY      -652.847400617576
FINAL SINGLE POINT ENERGY      -652.850684391866
FINAL SINGLE POINT ENERGY      -652.851271853904
FINAL SINGLE POINT ENERGY      -652.851401519132
FINAL SINGLE POINT ENERGY      -652.851419045450
FINAL SINGLE POINT ENERGY      -652.851430058964
                    ***********************HURRAY********************

CARTESIAN COORDINATES (ANGSTROEM)
---------------------------------
  C    -20.894199   26.222977   46.299604
  C    -20.122614   27.538362   46.164802
  C    -20.318897   28.180550   47.568915
  C    -20.311755   26.945416   48.495175
  O    -20.574448   25.779018   47.624061
  H    -20.613783   25.427929   45.599310
  H    -19.062897   27.320487   45.982809
  H    -20.484074   28.197168   45.378519
  H    -19.530771   28.897462   47.814905
  H    -21.285859   28.689424   47.606677
  H    -21.084242   26.982131   49.267750
  H    -19.338115   26.773490   48.964696
  C    -23.148932   26.285659   45.078044
  H    -22.936553   25.298617   44.634026
  H    -24.169543   26.249766   45.464584
  O    -22.330609   26.444775   46.269769
  C    -23.143522   27.322774   43.930668
  C    -21.844159   27.521799   43.130999
  C    -21.826428   26.253727   42.224287
  C    -23.331992   26.035335   41.924906
  O    -24.087429   26.793790   42.941776
  H    -23.533307   28.284215   44.276841
  O    -21.913502   28.745512   42.348132
  H    -20.945139   27.617069   43.725993
  H    -21.232474   26.431948   41.325221
  H    -21.396651   25.404076   42.764814
  H    -23.627336   24.983063   41.974991
  H    -23.622349   26.430916   40.946472
  H    -22.801421   28.816546   41.938254

 Multiplicity           Mult            ....    1
 Number of Electrons    NEL             ....  102
 Basis Dimension        Dim             ....  149

ORBITAL ENERGIES
----------------

  NO   OCC          E(Eh)            E(eV)
   0   2.0000     -19.152374      -521.1626
   1   2.0000     -19.144551      -520.9497
   2   2.0000     -19.140695      -520.8448
   3   2.0000     -19.140303      -520.8341
   4   2.0000     -10.284549      -279.8568
   5   2.0000     -10.246637      -278.8252
   6   2.0000     -10.240898      -278.6690
   7   2.0000     -10.237851      -278.5861
   8   2.0000     -10.234613      -278.4980
   9   2.0000     -10.224366      -278.2192
  10   2.0000     -10.195741      -277.4402
  11   2.0000     -10.187509      -277.2162
  12   2.0000     -10.186232      -277.1815
  13   2.0000      -1.054419       -28.6922
  14   2.0000      -1.045926       -28.4611
  15   2.0000      -1.013898       -27.5896
  16   2.0000      -0.993165       -27.0254
  17   2.0000      -0.786276       -21.3957
  18   2.0000      -0.784889       -21.3579
  19   2.0000      -0.771702       -20.9991
  20   2.0000      -0.737969       -20.0812
  21   2.0000      -0.678474       -18.4622
  22   2.0000      -0.613842       -16.7035
  23   2.0000      -0.605194       -16.4682
  24   2.0000      -0.598190       -16.2776
  25   2.0000      -0.581654       -15.8276
  26   2.0000      -0.528033       -14.3685
  27   2.0000      -0.521503       -14.1908
  28   2.0000      -0.503048       -13.6886
  29   2.0000      -0.486257       -13.2317
  30   2.0000      -0.478596       -13.0233
  31   2.0000      -0.460583       -12.5331
  32   2.0000      -0.453629       -12.3439
  33   2.0000      -0.439242       -11.9524
  34   2.0000      -0.425662       -11.5829
  35   2.0000      -0.421948       -11.4818
  36   2.0000      -0.408679       -11.1207
  37   2.0000      -0.398039       -10.8312
  38   2.0000      -0.380665       -10.3584
  39   2.0000      -0.376545       -10.2463
  40   2.0000      -0.365121        -9.9355
  41   2.0000      -0.356500        -9.7009
  42   2.0000      -0.350846        -9.5470
  43   2.0000      -0.337515        -9.1843
  44   2.0000      -0.314919        -8.5694
  45   2.0000      -0.312778        -8.5111
  46   2.0000      -0.300034        -8.1643
  47   2.0000      -0.278439        -7.5767
  48   2.0000      -0.269951        -7.3457
  49   2.0000      -0.258692        -7.0394
  50   2.0000      -0.241498        -6.5715
  51   0.0000       0.060804         1.6546
  52   0.0000       0.064528         1.7559
  53   0.0000       0.089205         2.4274
  54   0.0000       0.092614         2.5202
  55   0.0000       0.099336         2.7031

MULLIKEN ATOMIC CHARGES
-----------------------
   0 C :    0.298088
   1 C :   -0.276572
   2 C :   -0.304162
   3 C :    0.000629
   4 O :   -0.499121
   5 H :    0.133277
   6 H :    0.145037
   7 H :    0.162084
   8 H :    0.143414
   9 H :    0.163724
  10 H :    0.155540
  11 H :    0.141235
  12 C :    0.000329
  13 H :    0.120662
  14 H :    0.175036
  15 O :   -0.519948
  16 C :    0.040062
  17 C :    0.082922
  18 C :   -0.304742
  19 C :   -0.022728
  20 O :   -0.522901
  21 H :    0.162361
  22 O :   -0.604325
  23 H :    0.155101
  24 H :    0.166637
  25 H :    0.145756
  26 H :    0.150042
  27 H :    0.146046
  28 H :    0.366518
Sum of atomic charges:   -0.0000000

LOEWDIN ATOMIC CHARGES
----------------------
   0 C :    0.181204
   1 C :   -0.234402
   2 C :   -0.216237
   3 C :   -0.025420
   4 O :   -0.303296
   5 H :    0.093898
   6 H :    0.114374
   7 H :    0.119245
   8 H :    0.115272
   9 H :    0.119555
  10 H :    0.109636
  11 H :    0.101833
  12 C :   -0.039551
  13 H :    0.090505
  14 H :    0.127595
  15 O :   -0.336298
  16 C :    0.004456
  17 C :    0.030011
  18 C :   -0.242065
  19 C :   -0.037643
  20 O :   -0.324628
  21 H :    0.115701
  22 O :   -0.414572
  23 H :    0.116648
  24 H :    0.128621
  25 H :    0.112744
  26 H :    0.105781
  27 H :    0.103131
  28 H :    0.283903

  Mayer bond orders larger than 0.100000
B(  0-C ,  1-C ) :   0.9305 B(  0-C ,  4-O ) :   0.9398 B(  0-C ,  5-H ) :   0.9178
B(  0-C , 15-O ) :   0.8300 B(  1-C ,  2-C ) :   0.9460 B(  1-C ,  6-H ) :   0.9341
B(  1-C ,  7-H ) :   0.9182 B(  2-C ,  3-C ) :   0.9540 B(  2-C ,  8-H ) :   0.9442
B(  2-C ,  9-H ) :   0.9434 B(  3-C ,  4-O ) :   0.8318 B(  3-C , 10-H ) :   0.9348
B(  3-C , 11-H ) :   0.9396 B( 12-C , 13-H ) :   0.9229 B( 12-C , 14-H ) :   0.9325
B( 12-C , 15-O ) :   0.8583 B( 12-C , 16-C ) :   0.8679 B( 16-C , 17-C ) :   0.9102
B( 16-C , 20-O ) :   0.8247 B( 16-C , 21-H ) :   0.9255 B( 17-C , 18-C ) :   0.9100
B( 17-C , 22-O ) :   0.8914 B( 17-C , 23-H ) :   0.9121 B( 18-C , 19-C ) :   0.9403
B( 18-C , 24-H ) :   0.9369 B( 18-C , 25-H ) :   0.9330 B( 19-C , 20-O ) :   0.8366
B( 19-C , 26-H ) :   0.9352 B( 19-C , 27-H ) :   0.9384 B( 22-O , 28-H ) :   0.7933

FINAL SINGLE POINT ENERGY      -652.851434311721

DIPOLE MOMENT
-------------
                                X             Y             Z
Electronic contribution:     -3.17149      -0.70462       0.20156
Nuclear contribution   :      3.63936       0.79897      -0.79234
                        -----------------------------------------
Total Dipole Moment    :      0.46788       0.09434      -0.59078
                        -----------------------------------------
Magnitude (a.u.)       :      0.75949
Magnitude (Debye)      :      1.93048

Rotational constants in cm-1:     0.055420     0.013801     0.012666
Rotational constants in MHz :  1661.444922   413.736292   379.723537

                             ****ORCA TERMINATED NORMALLY****
TOTAL RUN TIME: 0 days 0 hours 19 minutes 48 seconds 613 msec
