                         Program Version 4.2.0 -  RELEASE  -
|  1> # Test redundant internal optimization
|  2> #
|  3> ! RKS B3LYP  Opt TightSCF SmallPrint
|  4>
|  5> %basis
|  6>         Basis "6-31G"
|  7> end
|  8>
|  9> %geom
| 10> Constraints
| 11> { D 4  0  15  12  210.0   C } # D for Dihedral angle
| 12> { D 0  15  12  16  345.0   C } # D for Dihedral angle
| 13> { D 0  4  3  2   C } # D for Dihedral angle
| 14> { D 4  3  2  1   C } # D for Dihedral angle
| 15> { D 3  2  1  0   C } # D for Dihedral angle
| 16> { D 2  1  0  4   C } # D for Dihedral angle
| 17> { D 1  0  4  3   C } # D for Dihedral angle
| 18> { D 16  20  19  18   C } # D for Dihedral angle
| 19> { D 20  19  18  17   C } # D for Dihedral angle
| 20> { D 19  18  17  16   C } # D for Dihedral angle
| 21> { D 18  17  16  20   C } # D for Dihedral angle
| 22> { D 17  16  20  19   C } # D for Dihedral angle
| 23> { D 15  12  16  20   C } # D for Dihedral angle
| 24> end
| 25> end
| 26>
| 27>
| 28> #%pal
| 29> #nprocs 8
| 30> #end
| 31>
| 32> * xyz 0 1
| 33> C  -21.048   26.222   46.251
| 34> C  -20.361   27.558   45.944
| 35> C  -20.329   28.222   47.341
| 36> C  -20.110   27.022   48.296
| 37> O  -20.473   25.807   47.535
| 38> H  -20.833   25.428   45.533
| 39> H  -19.344   27.382   45.576
| 40> H  -20.898   28.157   45.201
| 41> H  -19.543   28.978   47.434
| 42> H  -21.289   28.710   47.548
| 43> H  -20.733   27.082   49.195
| 44> H  -19.064   26.913   48.597
| 45> C  -23.389   26.110   45.076
| 46> H  -23.898   25.143   45.169
| 47> H  -24.151   26.885   44.919
| 48> O  -22.586   26.394   46.375
| 49> C  -22.489   26.069   43.810
| 50> C  -21.499   24.900   43.870
| 51> C  -22.396   23.708   43.459
| 52> C  -23.358   24.334   42.418
| 53> O  -23.296   25.798   42.616
| 54> H  -22.026   27.047   43.668
| 55> O  -20.361   25.113   42.834
| 56> H  -21.044   24.770   44.858
| 57> H  -21.825   22.869   43.048
| 58> H  -22.953   23.340   44.329
| 59> H  -24.392   23.998   42.548
| 60> H  -23.047   24.134   41.389
| 61> H  -20.793   25.245   41.834
| 62> *
| 63>
| 64>                          ****END OF INPUT****
 Total Charge           Charge          ....    0
 Multiplicity           Mult            ....    1
 Number of Electrons    NEL             ....  102
FINAL SINGLE POINT ENERGY      -652.772241475315
FINAL SINGLE POINT ENERGY      -652.824200497596
FINAL SINGLE POINT ENERGY      -652.843977442899
FINAL SINGLE POINT ENERGY      -652.847218984335
FINAL SINGLE POINT ENERGY      -652.847714898508
FINAL SINGLE POINT ENERGY      -652.847816736983
FINAL SINGLE POINT ENERGY      -652.847832018069
FINAL SINGLE POINT ENERGY      -652.847843454444
                    ***********************HURRAY********************

CARTESIAN COORDINATES (ANGSTROEM)
---------------------------------
  C    -20.818758   26.259207   46.380356
  C    -20.110680   27.597857   46.174551
  C    -20.418043   28.330404   47.503586
  C    -20.401583   27.185811   48.538682
  O    -20.554332   25.931606   47.756172
  H    -20.428875   25.430667   45.792071
  H    -19.032972   27.427608   46.061747
  H    -20.472085   28.137907   45.295166
  H    -19.686513   29.111373   47.730866
  H    -21.410762   28.786325   47.450850
  H    -21.219225   27.247600   49.261701
  H    -19.449244   27.107104   49.072380
  C    -23.036535   26.133710   45.034374
  H    -23.624575   25.228417   45.238343
  H    -23.740795   26.965735   44.946693
  O    -22.252429   26.407144   46.237227
  C    -22.383246   25.965106   43.643829
  C    -21.433012   24.776739   43.410130
  C    -22.433290   23.590017   43.272207
  C    -23.641426   24.245118   42.555812
  O    -23.502704   25.707842   42.731882
  H    -21.910452   26.897087   43.318176
  O    -20.668425   24.983943   42.189658
  H    -20.687562   24.608540   44.180995
  H    -21.986123   22.775352   42.698338
  H    -22.708834   23.210265   44.261441
  H    -24.603210   23.929096   42.969829
  H    -23.645074   24.050056   41.478748
  H    -21.267235   25.310365   41.485193

 Multiplicity           Mult            ....    1
 Number of Electrons    NEL             ....  102
 Basis Dimension        Dim             ....  149

ORBITAL ENERGIES
----------------

  NO   OCC          E(Eh)            E(eV)
   0   2.0000     -19.154824      -521.2292
   1   2.0000     -19.145340      -520.9712
   2   2.0000     -19.137062      -520.7459
   3   2.0000     -19.135397      -520.7006
   4   2.0000     -10.280266      -279.7403
   5   2.0000     -10.249514      -278.9034
   6   2.0000     -10.245579      -278.7964
   7   2.0000     -10.238811      -278.6122
   8   2.0000     -10.234218      -278.4872
   9   2.0000     -10.222217      -278.1607
  10   2.0000     -10.195443      -277.4321
  11   2.0000     -10.184349      -277.1302
  12   2.0000     -10.183629      -277.1106
  13   2.0000      -1.050192       -28.5772
  14   2.0000      -1.045433       -28.4477
  15   2.0000      -1.014796       -27.6140
  16   2.0000      -0.987637       -26.8750
  17   2.0000      -0.786210       -21.3939
  18   2.0000      -0.783526       -21.3208
  19   2.0000      -0.771767       -21.0009
  20   2.0000      -0.736847       -20.0506
  21   2.0000      -0.679603       -18.4929
  22   2.0000      -0.612057       -16.6549
  23   2.0000      -0.606935       -16.5155
  24   2.0000      -0.596543       -16.2328
  25   2.0000      -0.579271       -15.7628
  26   2.0000      -0.529851       -14.4180
  27   2.0000      -0.517920       -14.0933
  28   2.0000      -0.501924       -13.6580
  29   2.0000      -0.482471       -13.1287
  30   2.0000      -0.478298       -13.0151
  31   2.0000      -0.461370       -12.5545
  32   2.0000      -0.446500       -12.1499
  33   2.0000      -0.439204       -11.9514
  34   2.0000      -0.429117       -11.6769
  35   2.0000      -0.420183       -11.4338
  36   2.0000      -0.401392       -10.9224
  37   2.0000      -0.399507       -10.8711
  38   2.0000      -0.377509       -10.2725
  39   2.0000      -0.377086       -10.2610
  40   2.0000      -0.363018        -9.8782
  41   2.0000      -0.356345        -9.6966
  42   2.0000      -0.351817        -9.5734
  43   2.0000      -0.337845        -9.1932
  44   2.0000      -0.317040        -8.6271
  45   2.0000      -0.311432        -8.4745
  46   2.0000      -0.304484        -8.2854
  47   2.0000      -0.278586        -7.5807
  48   2.0000      -0.260256        -7.0819
  49   2.0000      -0.253056        -6.8860
  50   2.0000      -0.241895        -6.5823
  51   0.0000       0.058417         1.5896
  52   0.0000       0.069956         1.9036
  53   0.0000       0.084117         2.2889
  54   0.0000       0.092049         2.5048
  55   0.0000       0.095851         2.6082

MULLIKEN ATOMIC CHARGES
-----------------------
   0 C :    0.289107
   1 C :   -0.261227
   2 C :   -0.298840
   3 C :   -0.001632
   4 O :   -0.501717
   5 H :    0.140328
   6 H :    0.145896
   7 H :    0.142235
   8 H :    0.140798
   9 H :    0.162899
  10 H :    0.153140
  11 H :    0.141215
  12 C :    0.014226
  13 H :    0.137397
  14 H :    0.166018
  15 O :   -0.533302
  16 C :    0.025694
  17 C :    0.074392
  18 C :   -0.299359
  19 C :   -0.028795
  20 O :   -0.523050
  21 H :    0.159314
  22 O :   -0.601064
  23 H :    0.168262
  24 H :    0.166038
  25 H :    0.155657
  26 H :    0.150483
  27 H :    0.149796
  28 H :    0.366090
Sum of atomic charges:    0.0000000

LOEWDIN ATOMIC CHARGES
----------------------
   0 C :    0.180730
   1 C :   -0.227153
   2 C :   -0.216435
   3 C :   -0.025990
   4 O :   -0.307983
   5 H :    0.094389
   6 H :    0.114087
   7 H :    0.113695
   8 H :    0.113805
   9 H :    0.119377
  10 H :    0.108580
  11 H :    0.101688
  12 C :   -0.037616
  13 H :    0.100042
  14 H :    0.119693
  15 O :   -0.342631
  16 C :    0.004067
  17 C :    0.031767
  18 C :   -0.240501
  19 C :   -0.038237
  20 O :   -0.323963
  21 H :    0.112256
  22 O :   -0.413956
  23 H :    0.117790
  24 H :    0.128738
  25 H :    0.119253
  26 H :    0.106688
  27 H :    0.104088
  28 H :    0.283734

  Mayer bond orders larger than 0.100000
B(  0-C ,  1-C ) :   0.9336 B(  0-C ,  4-O ) :   0.9317 B(  0-C ,  5-H ) :   0.9017
B(  0-C , 15-O ) :   0.8344 B(  1-C ,  2-C ) :   0.9546 B(  1-C ,  6-H ) :   0.9337
B(  1-C ,  7-H ) :   0.9381 B(  2-C ,  3-C ) :   0.9537 B(  2-C ,  8-H ) :   0.9450
B(  2-C ,  9-H ) :   0.9435 B(  3-C ,  4-O ) :   0.8361 B(  3-C , 10-H ) :   0.9350
B(  3-C , 11-H ) :   0.9396 B( 12-C , 13-H ) :   0.9252 B( 12-C , 14-H ) :   0.9249
B( 12-C , 15-O ) :   0.8423 B( 12-C , 16-C ) :   0.8842 B( 16-C , 17-C ) :   0.9026
B( 16-C , 20-O ) :   0.8252 B( 16-C , 21-H ) :   0.9230 B( 17-C , 18-C ) :   0.9112
B( 17-C , 22-O ) :   0.8906 B( 17-C , 23-H ) :   0.9126 B( 18-C , 19-C ) :   0.9412
B( 18-C , 24-H ) :   0.9370 B( 18-C , 25-H ) :   0.9319 B( 19-C , 20-O ) :   0.8360
B( 19-C , 26-H ) :   0.9354 B( 19-C , 27-H ) :   0.9374 B( 22-O , 28-H ) :   0.7926

FINAL SINGLE POINT ENERGY      -652.847866565063

DIPOLE MOMENT
-------------
                                X             Y             Z
Electronic contribution:     -0.84914      -1.20033      -1.35140
Nuclear contribution   :      0.76312       1.33839       0.98381
                        -----------------------------------------
Total Dipole Moment    :     -0.08602       0.13806      -0.36759
                        -----------------------------------------
Magnitude (a.u.)       :      0.40197
Magnitude (Debye)      :      1.02174

Rotational constants in cm-1:     0.058592     0.012829     0.012373
Rotational constants in MHz :  1756.554749   384.605033   370.933081

                             ****ORCA TERMINATED NORMALLY****
TOTAL RUN TIME: 0 days 0 hours 47 minutes 20 seconds 266 msec
