                         Program Version 4.2.0 -  RELEASE  -
|  1> # Test redundant internal optimization
|  2> #
|  3> ! RKS B3LYP  Opt TightSCF SmallPrint
|  4>
|  5> %basis
|  6>         Basis "6-31G"
|  7> end
|  8>
|  9> %geom
| 10> Constraints
| 11> { D 4  0  15  12  45.0   C } # D for Dihedral angle
| 12> { D 0  15  12  16  300.0   C } # D for Dihedral angle
| 13> { D 0  4  3  2   C } # D for Dihedral angle
| 14> { D 4  3  2  1   C } # D for Dihedral angle
| 15> { D 3  2  1  0   C } # D for Dihedral angle
| 16> { D 2  1  0  4   C } # D for Dihedral angle
| 17> { D 1  0  4  3   C } # D for Dihedral angle
| 18> { D 16  20  19  18   C } # D for Dihedral angle
| 19> { D 20  19  18  17   C } # D for Dihedral angle
| 20> { D 19  18  17  16   C } # D for Dihedral angle
| 21> { D 18  17  16  20   C } # D for Dihedral angle
| 22> { D 17  16  20  19   C } # D for Dihedral angle
| 23> { D 15  12  16  20   C } # D for Dihedral angle
| 24> end
| 25> end
| 26>
| 27>
| 28> #%pal
| 29> #nprocs 8
| 30> #end
| 31>
| 32> * xyz 0 1
| 33> C  -21.048   26.222   46.251
| 34> C  -20.361   27.558   45.944
| 35> C  -20.329   28.222   47.341
| 36> C  -20.110   27.022   48.296
| 37> O  -20.473   25.807   47.535
| 38> H  -20.833   25.428   45.533
| 39> H  -19.344   27.382   45.576
| 40> H  -20.898   28.157   45.201
| 41> H  -19.543   28.978   47.434
| 42> H  -21.289   28.710   47.548
| 43> H  -20.733   27.082   49.195
| 44> H  -19.064   26.913   48.597
| 45> C  -23.065   27.161   47.638
| 46> H  -22.642   28.174   47.628
| 47> H  -24.159   27.247   47.643
| 48> O  -22.586   26.394   46.375
| 49> C  -22.639   26.466   48.961
| 50> C  -23.225   27.185   50.181
| 51> C  -24.679   26.654   50.189
| 52> C  -24.523   25.195   49.694
| 53> O  -23.202   25.114   49.033
| 54> H  -21.552   26.362   48.976
| 55> O  -22.475   26.749   51.468
| 56> H  -23.172   28.277   50.103
| 57> H  -25.146   26.712   51.178
| 58> H  -25.296   27.235   49.493
| 59> H  -25.301   24.910   48.977
| 60> H  -24.517   24.473   50.516
| 61> H  -22.515   25.658   51.566
| 62> *
| 63>
| 64>                          ****END OF INPUT****
 Total Charge           Charge          ....    0
 Multiplicity           Mult            ....    1
 Number of Electrons    NEL             ....  102
FINAL SINGLE POINT ENERGY      -652.758903517579
FINAL SINGLE POINT ENERGY      -652.820717704523
FINAL SINGLE POINT ENERGY      -652.843360773702
FINAL SINGLE POINT ENERGY      -652.848817043346
FINAL SINGLE POINT ENERGY      -652.849648228543
FINAL SINGLE POINT ENERGY      -652.849875554422
FINAL SINGLE POINT ENERGY      -652.849937446932
FINAL SINGLE POINT ENERGY      -652.849968965425
FINAL SINGLE POINT ENERGY      -652.849975377854
                    ***********************HURRAY********************

CARTESIAN COORDINATES (ANGSTROEM)
---------------------------------
  C    -21.099194   26.358736   46.366078
  C    -20.365272   27.610896   45.864963
  C    -19.890438   28.262164   47.195701
  C    -19.571608   27.032282   48.079939
  O    -20.268682   25.880242   47.449555
  H    -21.104658   25.553307   45.629728
  H    -19.507803   27.300927   45.257544
  H    -21.010429   28.258424   45.266741
  H    -19.015500   28.905849   47.062705
  H    -20.688042   28.872428   47.632609
  H    -19.907538   27.143859   49.114744
  H    -18.506022   26.784115   48.081939
  C    -23.122691   27.146059   47.767240
  H    -22.857326   28.215206   47.824149
  H    -24.192661   27.079945   47.550972
  O    -22.518024   26.526151   46.603534
  C    -22.814879   26.494932   49.121196
  C    -23.551355   27.169741   50.288361
  C    -24.956689   26.513713   50.197416
  C    -24.636079   25.070244   49.733679
  O    -23.265269   25.101118   49.171354
  H    -21.743349   26.464443   49.301623
  O    -22.893522   26.868970   51.550254
  H    -23.579090   28.259167   50.231964
  H    -25.461391   26.550070   51.166236
  H    -25.577049   27.042792   49.465418
  H    -25.327677   24.708705   48.966737
  H    -24.630002   24.355331   50.562679
  H    -22.656759   25.917182   51.564943

 Multiplicity           Mult            ....    1
 Number of Electrons    NEL             ....  102
 Basis Dimension        Dim             ....  149

ORBITAL ENERGIES
----------------

  NO   OCC          E(Eh)            E(eV)
   0   2.0000     -19.147021      -521.0169
   1   2.0000     -19.140121      -520.8292
   2   2.0000     -19.139078      -520.8008
   3   2.0000     -19.137516      -520.7583
   4   2.0000     -10.277341      -279.6607
   5   2.0000     -10.243707      -278.7455
   6   2.0000     -10.235427      -278.5201
   7   2.0000     -10.231779      -278.4209
   8   2.0000     -10.230608      -278.3890
   9   2.0000     -10.228180      -278.3229
  10   2.0000     -10.194350      -277.4024
  11   2.0000     -10.189998      -277.2839
  12   2.0000     -10.187458      -277.2148
  13   2.0000      -1.049790       -28.5662
  14   2.0000      -1.034700       -28.1556
  15   2.0000      -1.005529       -27.3618
  16   2.0000      -0.994360       -27.0579
  17   2.0000      -0.789933       -21.4952
  18   2.0000      -0.784682       -21.3523
  19   2.0000      -0.768785       -20.9197
  20   2.0000      -0.734565       -19.9885
  21   2.0000      -0.678550       -18.4643
  22   2.0000      -0.608358       -16.5543
  23   2.0000      -0.604043       -16.4368
  24   2.0000      -0.603164       -16.4129
  25   2.0000      -0.569648       -15.5009
  26   2.0000      -0.521887       -14.2013
  27   2.0000      -0.511816       -13.9272
  28   2.0000      -0.502015       -13.6605
  29   2.0000      -0.489130       -13.3099
  30   2.0000      -0.471578       -12.8323
  31   2.0000      -0.463446       -12.6110
  32   2.0000      -0.450870       -12.2688
  33   2.0000      -0.442482       -12.0405
  34   2.0000      -0.420745       -11.4491
  35   2.0000      -0.415307       -11.3011
  36   2.0000      -0.402256       -10.9459
  37   2.0000      -0.393114       -10.6972
  38   2.0000      -0.378723       -10.3056
  39   2.0000      -0.372664       -10.1407
  40   2.0000      -0.364523        -9.9192
  41   2.0000      -0.360976        -9.8227
  42   2.0000      -0.342252        -9.3131
  43   2.0000      -0.338349        -9.2070
  44   2.0000      -0.319444        -8.6925
  45   2.0000      -0.309417        -8.4197
  46   2.0000      -0.301525        -8.2049
  47   2.0000      -0.271332        -7.3833
  48   2.0000      -0.262094        -7.1319
  49   2.0000      -0.256274        -6.9736
  50   2.0000      -0.236083        -6.4242
  51   0.0000       0.061732         1.6798
  52   0.0000       0.075157         2.0451
  53   0.0000       0.088897         2.4190
  54   0.0000       0.091557         2.4914
  55   0.0000       0.094120         2.5611

MULLIKEN ATOMIC CHARGES
-----------------------
   0 C :    0.305234
   1 C :   -0.271331
   2 C :   -0.312704
   3 C :   -0.025986
   4 O :   -0.499199
   5 H :    0.170618
   6 H :    0.152472
   7 H :    0.153322
   8 H :    0.149043
   9 H :    0.146120
  10 H :    0.144878
  11 H :    0.154115
  12 C :   -0.001364
  13 H :    0.115600
  14 H :    0.157133
  15 O :   -0.522560
  16 C :    0.043236
  17 C :    0.073058
  18 C :   -0.300674
  19 C :   -0.030662
  20 O :   -0.504622
  21 H :    0.185257
  22 O :   -0.603647
  23 H :    0.150222
  24 H :    0.162939
  25 H :    0.144675
  26 H :    0.150400
  27 H :    0.147152
  28 H :    0.367271
Sum of atomic charges:    0.0000000

LOEWDIN ATOMIC CHARGES
----------------------
   0 C :    0.179960
   1 C :   -0.228228
   2 C :   -0.222712
   3 C :   -0.038155
   4 O :   -0.313895
   5 H :    0.115104
   6 H :    0.118913
   7 H :    0.121161
   8 H :    0.117772
   9 H :    0.107469
  10 H :    0.099950
  11 H :    0.107704
  12 C :   -0.037855
  13 H :    0.086330
  14 H :    0.115457
  15 O :   -0.318909
  16 C :    0.001468
  17 C :    0.032749
  18 C :   -0.242642
  19 C :   -0.039597
  20 O :   -0.317540
  21 H :    0.124311
  22 O :   -0.415693
  23 H :    0.113696
  24 H :    0.126505
  25 H :    0.112733
  26 H :    0.106289
  27 H :    0.102815
  28 H :    0.284837

  Mayer bond orders larger than 0.100000
B(  0-C ,  1-C ) :   0.9134 B(  0-C ,  4-O ) :   0.9018 B(  0-C ,  5-H ) :   0.9362
B(  0-C , 15-O ) :   0.8854 B(  1-C ,  2-C ) :   0.9571 B(  1-C ,  6-H ) :   0.9355
B(  1-C ,  7-H ) :   0.9381 B(  2-C ,  3-C ) :   0.9478 B(  2-C ,  8-H ) :   0.9439
B(  2-C ,  9-H ) :   0.9435 B(  3-C ,  4-O ) :   0.8413 B(  3-C , 10-H ) :   0.9195
B(  3-C , 11-H ) :   0.9397 B( 12-C , 13-H ) :   0.9038 B( 12-C , 14-H ) :   0.9385
B( 12-C , 15-O ) :   0.8620 B( 12-C , 16-C ) :   0.8780 B( 16-C , 17-C ) :   0.8934
B( 16-C , 20-O ) :   0.8611 B( 16-C , 21-H ) :   0.9040 B( 17-C , 18-C ) :   0.9116
B( 17-C , 22-O ) :   0.8928 B( 17-C , 23-H ) :   0.9318 B( 18-C , 19-C ) :   0.9401
B( 18-C , 24-H ) :   0.9373 B( 18-C , 25-H ) :   0.9339 B( 19-C , 20-O ) :   0.8549
B( 19-C , 26-H ) :   0.9335 B( 19-C , 27-H ) :   0.9371 B( 22-O , 28-H ) :   0.7923

FINAL SINGLE POINT ENERGY      -652.849975206574

DIPOLE MOMENT
-------------
                                X             Y             Z
Electronic contribution:     -0.03473      -4.35345       0.16550
Nuclear contribution   :     -0.10028       5.37336      -0.29900
                        -----------------------------------------
Total Dipole Moment    :     -0.13502       1.01991      -0.13350
                        -----------------------------------------
Magnitude (a.u.)       :      1.03744
Magnitude (Debye)      :      2.63695

Rotational constants in cm-1:     0.050742     0.015744     0.014369
Rotational constants in MHz :  1521.203008   471.980357   430.761356

                             ****ORCA TERMINATED NORMALLY****
TOTAL RUN TIME: 0 days 0 hours 25 minutes 17 seconds 664 msec
