                         Program Version 4.2.1 -  RELEASE  -
|  1> # Test redundant internal optimization
|  2> #
|  3> ! RKS B3LYP  Opt TightSCF SmallPrint
|  4>
|  5> %basis
|  6>         Basis "6-31G"
|  7> end
|  8>
|  9> %geom
| 10> Constraints
| 11> { D 4  0  19  14  255.0   C } # D for Dihedral angle
| 12> { D 0  19  14  12  330.0   C } # D for Dihedral angle
| 13> { D 0  4  3  2   C } # D for Dihedral angle
| 14> { D 4  3  2  1   C } # D for Dihedral angle
| 15> { D 3  2  1  0   C } # D for Dihedral angle
| 16> { D 2  1  0  4   C } # D for Dihedral angle
| 17> { D 1  0  4  3   C } # D for Dihedral angle
| 18> { D 14  15  16  17   C } # D for Dihedral angle
| 19> { D 15  16  17  12   C } # D for Dihedral angle
| 20> { D 16  17  12  14   C } # D for Dihedral angle
| 21> { D 17  12  14  15   C } # D for Dihedral angle
| 22> { D 12  14  15  16   C } # D for Dihedral angle
| 23> end
| 24> end
| 25>
| 26>
| 27> #%pal
| 28> #nprocs 8
| 29> #end
| 30>
| 31> * xyz 0 1
| 32> C  -21.048   26.222   46.251
| 33> C  -20.361   27.558   45.944
| 34> C  -20.329   28.222   47.341
| 35> C  -20.110   27.022   48.296
| 36> O  -20.473   25.807   47.535
| 37> H  -20.833   25.428   45.533
| 38> H  -19.344   27.382   45.576
| 39> H  -20.898   28.157   45.201
| 40> H  -19.543   28.978   47.434
| 41> H  -21.289   28.710   47.548
| 42> H  -20.733   27.082   49.195
| 43> H  -19.064   26.913   48.597
| 44> C  -22.470   24.728   44.580
| 45> H  -23.133   24.131   43.933
| 46> C  -23.236   25.322   45.767
| 47> C  -23.329   24.108   46.721
| 48> C  -21.986   23.373   46.486
| 49> O  -21.453   23.871   45.199
| 50> H  -21.941   25.461   43.969
| 51> O  -22.472   26.381   46.366
| 52> H  -24.219   25.720   45.489
| 53> H  -23.469   24.399   47.766
| 54> H  -24.174   23.469   46.436
| 55> H  -22.107   22.286   46.427
| 56> H  -21.243   23.605   47.254
| 57> *
| 58>
| 59>                          ****END OF INPUT****
 Total Charge           Charge          ....    0
 Multiplicity           Mult            ....    1
 Number of Electrons    NEL             ....   86
FINAL SINGLE POINT ENERGY      -538.416231108139
FINAL SINGLE POINT ENERGY      -538.432124816941
FINAL SINGLE POINT ENERGY      -538.434253409622
FINAL SINGLE POINT ENERGY      -538.434698439778
FINAL SINGLE POINT ENERGY      -538.434752772328
FINAL SINGLE POINT ENERGY      -538.434771802306
                    ***********************HURRAY********************

CARTESIAN COORDINATES (ANGSTROEM)
---------------------------------
  C    -20.822458   26.260012   46.227157
  C    -20.298069   27.678014   45.990880
  C    -20.413891   28.299895   47.403838
  C    -20.088807   27.107686   48.333467
  O    -20.264868   25.887148   47.511643
  H    -20.502455   25.494330   45.522533
  H    -19.250943   27.628141   45.669885
  H    -20.878816   28.211161   45.235438
  H    -19.731537   29.141987   47.552805
  H    -21.438120   28.647291   47.567463
  H    -20.752488   27.050598   49.200629
  H    -19.049320   27.109947   48.676028
  C    -22.566566   24.571218   44.518438
  H    -23.380485   24.081204   43.964586
  C    -23.127664   25.296770   45.744033
  C    -23.313079   24.130203   46.736445
  C    -22.125844   23.191189   46.421709
  O    -21.636537   23.581859   45.068407
  H    -22.006273   25.212075   43.833913
  O    -22.270434   26.336578   46.313179
  H    -24.065422   25.815548   45.529946
  H    -23.302730   24.497534   47.764477
  H    -24.272204   23.631665   46.550041
  H    -22.408321   22.134135   46.397640
  H    -21.289668   23.338812   47.109421

 Multiplicity           Mult            ....    1
 Number of Electrons    NEL             ....   86
 Basis Dimension        Dim             ....  127

ORBITAL ENERGIES
----------------

  NO   OCC          E(Eh)            E(eV)
   0   2.0000     -19.135899      -520.7143
   1   2.0000     -19.135870      -520.7135
   2   2.0000     -19.131720      -520.6006
   3   2.0000     -10.267896      -279.4037
   4   2.0000     -10.240738      -278.6647
   5   2.0000     -10.228703      -278.3371
   6   2.0000     -10.218533      -278.0604
   7   2.0000     -10.218456      -278.0583
   8   2.0000     -10.180842      -277.0348
   9   2.0000     -10.179204      -276.9902
  10   2.0000     -10.178496      -276.9709
  11   2.0000      -1.045513       -28.4499
  12   2.0000      -1.015186       -27.6246
  13   2.0000      -0.983740       -26.7689
  14   2.0000      -0.787557       -21.4305
  15   2.0000      -0.771598       -20.9962
  16   2.0000      -0.738643       -20.0995
  17   2.0000      -0.718922       -19.5629
  18   2.0000      -0.615910       -16.7598
  19   2.0000      -0.596734       -16.2380
  20   2.0000      -0.591196       -16.0873
  21   2.0000      -0.562986       -15.3196
  22   2.0000      -0.522131       -14.2079
  23   2.0000      -0.500655       -13.6235
  24   2.0000      -0.477209       -12.9855
  25   2.0000      -0.474250       -12.9050
  26   2.0000      -0.449781       -12.2392
  27   2.0000      -0.445629       -12.1262
  28   2.0000      -0.418390       -11.3850
  29   2.0000      -0.412042       -11.2122
  30   2.0000      -0.396157       -10.7800
  31   2.0000      -0.388324       -10.5668
  32   2.0000      -0.369792       -10.0626
  33   2.0000      -0.367217        -9.9925
  34   2.0000      -0.354844        -9.6558
  35   2.0000      -0.349525        -9.5110
  36   2.0000      -0.340049        -9.2532
  37   2.0000      -0.315778        -8.5928
  38   2.0000      -0.310848        -8.4586
  39   2.0000      -0.295029        -8.0281
  40   2.0000      -0.263448        -7.1688
  41   2.0000      -0.242092        -6.5877
  42   2.0000      -0.236036        -6.4229
  43   0.0000       0.080425         2.1885
  44   0.0000       0.101343         2.7577
  45   0.0000       0.104387         2.8405
  46   0.0000       0.110227         2.9994
  47   0.0000       0.117806         3.2057

MULLIKEN ATOMIC CHARGES
-----------------------
   0 C :    0.264677
   1 C :   -0.250302
   2 C :   -0.297735
   3 C :   -0.000090
   4 O :   -0.513955
   5 H :    0.187321
   6 H :    0.142476
   7 H :    0.145228
   8 H :    0.136972
   9 H :    0.160736
  10 H :    0.144034
  11 H :    0.138852
  12 C :   -0.039964
  13 H :    0.137590
  14 C :    0.085439
  15 C :   -0.276181
  16 C :   -0.030573
  17 O :   -0.523555
  18 H :    0.155164
  19 O :   -0.532633
  20 H :    0.145389
  21 H :    0.167800
  22 H :    0.132788
  23 H :    0.139850
  24 H :    0.180675
Sum of atomic charges:   -0.0000000

LOEWDIN ATOMIC CHARGES
----------------------
   0 C :    0.164623
   1 C :   -0.217556
   2 C :   -0.216151
   3 C :   -0.028396
   4 O :   -0.326035
   5 H :    0.119640
   6 H :    0.112117
   7 H :    0.118051
   8 H :    0.111547
   9 H :    0.118426
  10 H :    0.103540
  11 H :    0.100492
  12 C :   -0.055103
  13 H :    0.101079
  14 C :    0.043602
  15 C :   -0.231354
  16 C :   -0.037872
  17 O :   -0.336639
  18 H :    0.112545
  19 O :   -0.329858
  20 H :    0.111968
  21 H :    0.130312
  22 H :    0.108951
  23 H :    0.101775
  24 H :    0.120294

  Mayer bond orders larger than 0.100000
B(  0-C ,  1-C ) :   0.9441 B(  0-C ,  4-O ) :   0.8975 B(  0-C ,  5-H ) :   0.8933
B(  0-C , 19-O ) :   0.8335 B(  1-C ,  2-C ) :   0.9562 B(  1-C ,  6-H ) :   0.9394
B(  1-C ,  7-H ) :   0.9391 B(  2-C ,  3-C ) :   0.9547 B(  2-C ,  8-H ) :   0.9460
B(  2-C ,  9-H ) :   0.9440 B(  3-C ,  4-O ) :   0.8415 B(  3-C , 10-H ) :   0.9358
B(  3-C , 11-H ) :   0.9402 B( 12-C , 13-H ) :   0.9157 B( 12-C , 14-C ) :   0.9245
B( 12-C , 17-O ) :   0.8557 B( 12-C , 18-H ) :   0.9305 B( 14-C , 15-C ) :   0.9264
B( 14-C , 19-O ) :   0.8697 B( 14-C , 20-H ) :   0.9353 B( 15-C , 16-C ) :   0.9495
B( 15-C , 21-H ) :   0.9360 B( 15-C , 22-H ) :   0.9385 B( 16-C , 17-O ) :   0.8325
B( 16-C , 23-H ) :   0.9351 B( 16-C , 24-H ) :   0.9247

FINAL SINGLE POINT ENERGY      -538.434772735241

DIPOLE MOMENT
-------------
                                X             Y             Z
Electronic contribution:      0.24872      -2.09368      -1.10001
Nuclear contribution   :     -0.81075       2.64502       1.06095
                        -----------------------------------------
Total Dipole Moment    :     -0.56203       0.55135      -0.03906
                        -----------------------------------------
Magnitude (a.u.)       :      0.78828
Magnitude (Debye)      :      2.00364

Rotational constants in cm-1:     0.075545     0.024067     0.022723
Rotational constants in MHz :  2264.773344   721.512625   681.217484

                             ****ORCA TERMINATED NORMALLY****
TOTAL RUN TIME: 0 days 0 hours 7 minutes 56 seconds 62 msec
