                         Program Version 4.2.0 -  RELEASE  -
|  1> # Test redundant internal optimization
|  2> #
|  3> ! RKS B3LYP  Opt TightSCF SmallPrint
|  4>
|  5> %basis
|  6>         Basis "6-31G"
|  7> end
|  8>
|  9> %geom
| 10> Constraints
| 11> { D 4  0  15  12  225.0   C } # D for Dihedral angle
| 12> { D 0  15  12  16  210.0   C } # D for Dihedral angle
| 13> { D 0  4  3  2   C } # D for Dihedral angle
| 14> { D 4  3  2  1   C } # D for Dihedral angle
| 15> { D 3  2  1  0   C } # D for Dihedral angle
| 16> { D 2  1  0  4   C } # D for Dihedral angle
| 17> { D 1  0  4  3   C } # D for Dihedral angle
| 18> { D 16  20  19  18   C } # D for Dihedral angle
| 19> { D 20  19  18  17   C } # D for Dihedral angle
| 20> { D 19  18  17  16   C } # D for Dihedral angle
| 21> { D 18  17  16  20   C } # D for Dihedral angle
| 22> { D 17  16  20  19   C } # D for Dihedral angle
| 23> { D 15  12  16  20   C } # D for Dihedral angle
| 24> end
| 25> end
| 26>
| 27>
| 28> #%pal
| 29> #nprocs 8
| 30> #end
| 31>
| 32> * xyz 0 1
| 33> C  -21.048   26.222   46.251
| 34> C  -20.361   27.558   45.944
| 35> C  -20.329   28.222   47.341
| 36> C  -20.110   27.022   48.296
| 37> O  -20.473   25.807   47.535
| 38> H  -20.833   25.428   45.533
| 39> H  -19.344   27.382   45.576
| 40> H  -20.898   28.157   45.201
| 41> H  -19.543   28.978   47.434
| 42> H  -21.289   28.710   47.548
| 43> H  -20.733   27.082   49.195
| 44> H  -19.064   26.913   48.597
| 45> C  -23.415   25.773   45.218
| 46> H  -22.820   25.788   44.297
| 47> H  -23.669   24.729   45.445
| 48> O  -22.586   26.394   46.375
| 49> C  -24.743   26.536   44.954
| 50> C  -24.476   27.963   44.464
| 51> C  -24.137   27.725   42.973
| 52> C  -25.061   26.542   42.587
| 53> O  -25.484   25.909   43.854
| 54> H  -25.374   26.473   45.842
| 55> H  -25.384   28.570   44.561
| 56> O  -23.330   28.670   45.237
| 57> H  -24.310   28.609   42.352
| 58> H  -23.083   27.443   42.868
| 59> H  -24.551   25.797   41.967
| 60> H  -25.967   26.871   42.072
| 61> H  -22.411   28.080   45.153
| 62> *
| 63>
| 64>                          ****END OF INPUT****
 Total Charge           Charge          ....    0
 Multiplicity           Mult            ....    1
 Number of Electrons    NEL             ....  102
FINAL SINGLE POINT ENERGY      -652.820211998875
FINAL SINGLE POINT ENERGY      -652.846478935473
FINAL SINGLE POINT ENERGY      -652.853834505216
FINAL SINGLE POINT ENERGY      -652.857280616705
FINAL SINGLE POINT ENERGY      -652.859332552106
FINAL SINGLE POINT ENERGY      -652.861128123784
FINAL SINGLE POINT ENERGY      -652.862586088223
FINAL SINGLE POINT ENERGY      -652.863434058697
FINAL SINGLE POINT ENERGY      -652.863785317326
FINAL SINGLE POINT ENERGY      -652.863837109554
FINAL SINGLE POINT ENERGY      -652.863852348755
                    ***********************HURRAY********************

CARTESIAN COORDINATES (ANGSTROEM)
---------------------------------
  C    -21.078606   26.174460   46.217057
  C    -20.368636   27.481827   45.871126
  C    -20.376033   28.220823   47.231616
  C    -20.205048   27.072886   48.248259
  O    -20.564919   25.829913   47.509922
  H    -20.869819   25.334072   45.550346
  H    -19.342890   27.257846   45.556916
  H    -20.868902   28.043336   45.078691
  H    -19.575997   28.963703   47.303458
  H    -21.327453   28.741587   47.380203
  H    -20.860131   27.159962   49.118143
  H    -19.171025   26.947277   48.580890
  C    -23.321813   25.731958   45.220574
  H    -22.721163   25.677362   44.302768
  H    -23.597225   24.714735   45.516791
  O    -22.535458   26.362389   46.294696
  C    -24.591283   26.553856   44.969322
  C    -24.376221   27.992424   44.475074
  C    -24.093696   27.768009   42.962331
  C    -25.002666   26.571814   42.610327
  O    -25.360616   25.918244   43.902519
  H    -25.216570   26.524646   45.866547
  H    -25.315065   28.547180   44.594067
  O    -23.323627   28.720794   45.145736
  H    -24.315067   28.657907   42.366833
  H    -23.031732   27.533295   42.833968
  H    -24.515951   25.833859   41.964808
  H    -25.944257   26.878972   42.146490
  H    -22.954131   28.137865   45.850524

 Multiplicity           Mult            ....    1
 Number of Electrons    NEL             ....  102
 Basis Dimension        Dim             ....  149

ORBITAL ENERGIES
----------------

  NO   OCC          E(Eh)            E(eV)
   0   2.0000     -19.161081      -521.3995
   1   2.0000     -19.147619      -521.0332
   2   2.0000     -19.145004      -520.9620
   3   2.0000     -19.125628      -520.4348
   4   2.0000     -10.289979      -280.0046
   5   2.0000     -10.240459      -278.6571
   6   2.0000     -10.238519      -278.6043
   7   2.0000     -10.237184      -278.5680
   8   2.0000     -10.231340      -278.4089
   9   2.0000     -10.230198      -278.3778
  10   2.0000     -10.191518      -277.3253
  11   2.0000     -10.190042      -277.2852
  12   2.0000     -10.185830      -277.1705
  13   2.0000      -1.061672       -28.8896
  14   2.0000      -1.031027       -28.0557
  15   2.0000      -1.009159       -27.4606
  16   2.0000      -0.999193       -27.1894
  17   2.0000      -0.793310       -21.5871
  18   2.0000      -0.777095       -21.1458
  19   2.0000      -0.771346       -20.9894
  20   2.0000      -0.736142       -20.0315
  21   2.0000      -0.681800       -18.5527
  22   2.0000      -0.605324       -16.4717
  23   2.0000      -0.603453       -16.4208
  24   2.0000      -0.595630       -16.2079
  25   2.0000      -0.586675       -15.9642
  26   2.0000      -0.528970       -14.3940
  27   2.0000      -0.519776       -14.1438
  28   2.0000      -0.501074       -13.6349
  29   2.0000      -0.492273       -13.3954
  30   2.0000      -0.473261       -12.8781
  31   2.0000      -0.461500       -12.5581
  32   2.0000      -0.446507       -12.1501
  33   2.0000      -0.434723       -11.8294
  34   2.0000      -0.430101       -11.7036
  35   2.0000      -0.426500       -11.6057
  36   2.0000      -0.406202       -11.0533
  37   2.0000      -0.390792       -10.6340
  38   2.0000      -0.381614       -10.3842
  39   2.0000      -0.376762       -10.2522
  40   2.0000      -0.362227        -9.8567
  41   2.0000      -0.360069        -9.7980
  42   2.0000      -0.350793        -9.5456
  43   2.0000      -0.343328        -9.3424
  44   2.0000      -0.325557        -8.8589
  45   2.0000      -0.320340        -8.7169
  46   2.0000      -0.296550        -8.0695
  47   2.0000      -0.273886        -7.4528
  48   2.0000      -0.266454        -7.2506
  49   2.0000      -0.255213        -6.9447
  50   2.0000      -0.246526        -6.7083
  51   0.0000       0.052082         1.4172
  52   0.0000       0.073393         1.9971
  53   0.0000       0.091595         2.4924
  54   0.0000       0.094367         2.5679
  55   0.0000       0.102507         2.7894

MULLIKEN ATOMIC CHARGES
-----------------------
   0 C :    0.297999
   1 C :   -0.293462
   2 C :   -0.308994
   3 C :   -0.004260
   4 O :   -0.498816
   5 H :    0.148165
   6 H :    0.149773
   7 H :    0.169790
   8 H :    0.150056
   9 H :    0.164365
  10 H :    0.156499
  11 H :    0.146184
  12 C :   -0.013103
  13 H :    0.134718
  14 H :    0.167625
  15 O :   -0.545596
  16 C :    0.043244
  17 C :    0.112556
  18 C :   -0.300958
  19 C :   -0.022197
  20 O :   -0.519082
  21 H :    0.166549
  22 H :    0.147161
  23 O :   -0.648052
  24 H :    0.154112
  25 H :    0.146265
  26 H :    0.144194
  27 H :    0.152377
  28 H :    0.402888
Sum of atomic charges:    0.0000000

LOEWDIN ATOMIC CHARGES
----------------------
   0 C :    0.179502
   1 C :   -0.234907
   2 C :   -0.216802
   3 C :   -0.026157
   4 O :   -0.306019
   5 H :    0.103005
   6 H :    0.117432
   7 H :    0.126546
   8 H :    0.118941
   9 H :    0.117768
  10 H :    0.110498
  11 H :    0.105008
  12 C :   -0.041843
  13 H :    0.096380
  14 H :    0.116374
  15 O :   -0.346738
  16 C :    0.016245
  17 C :    0.040571
  18 C :   -0.233294
  19 C :   -0.032376
  20 O :   -0.321035
  21 H :    0.117527
  22 H :    0.103740
  23 O :   -0.436794
  24 H :    0.122329
  25 H :    0.110980
  26 H :    0.102732
  27 H :    0.107408
  28 H :    0.282977

  Mayer bond orders larger than 0.100000
B(  0-C ,  1-C ) :   0.9399 B(  0-C ,  4-O ) :   0.9475 B(  0-C ,  5-H ) :   0.9216
B(  0-C , 15-O ) :   0.7999 B(  1-C ,  2-C ) :   0.9502 B(  1-C ,  6-H ) :   0.9344
B(  1-C ,  7-H ) :   0.9168 B(  2-C ,  3-C ) :   0.9511 B(  2-C ,  8-H ) :   0.9448
B(  2-C ,  9-H ) :   0.9409 B(  3-C ,  4-O ) :   0.8311 B(  3-C , 10-H ) :   0.9345
B(  3-C , 11-H ) :   0.9395 B( 12-C , 13-H ) :   0.9202 B( 12-C , 14-H ) :   0.9233
B( 12-C , 15-O ) :   0.7969 B( 12-C , 16-C ) :   0.9067 B( 15-O , 28-H ) :   0.1015
B( 16-C , 17-C ) :   0.9175 B( 16-C , 20-O ) :   0.8576 B( 16-C , 21-H ) :   0.9272
B( 17-C , 18-C ) :   0.9102 B( 17-C , 22-H ) :   0.9251 B( 17-C , 23-O ) :   0.9211
B( 18-C , 19-C ) :   0.9390 B( 18-C , 24-H ) :   0.9440 B( 18-C , 25-H ) :   0.9422
B( 19-C , 20-O ) :   0.8338 B( 19-C , 26-H ) :   0.9337 B( 19-C , 27-H ) :   0.9376
B( 23-O , 28-H ) :   0.6982

FINAL SINGLE POINT ENERGY      -652.863855536861

DIPOLE MOMENT
-------------
                                X             Y             Z
Electronic contribution:     -2.76662      -3.17809       2.30078
Nuclear contribution   :      3.45808       3.46607      -2.87060
                        -----------------------------------------
Total Dipole Moment    :      0.69147       0.28798      -0.56982
                        -----------------------------------------
Magnitude (a.u.)       :      0.94114
Magnitude (Debye)      :      2.39219

Rotational constants in cm-1:     0.060563     0.014202     0.012902
Rotational constants in MHz :  1815.647644   425.776965   386.787347

                             ****ORCA TERMINATED NORMALLY****
TOTAL RUN TIME: 0 days 0 hours 31 minutes 29 seconds 834 msec
