                         Program Version 4.2.1 -  RELEASE  -
|  1> # Test redundant internal optimization
|  2> #
|  3> ! RKS B3LYP  Opt TightSCF SmallPrint
|  4>
|  5> %basis
|  6>         Basis "6-31G"
|  7> end
|  8>
|  9> %geom
| 10> Constraints
| 11> { D 4  0  19  14  285.0   C } # D for Dihedral angle
| 12> { D 0  19  14  12  165.0   C } # D for Dihedral angle
| 13> { D 0  4  3  2   C } # D for Dihedral angle
| 14> { D 4  3  2  1   C } # D for Dihedral angle
| 15> { D 3  2  1  0   C } # D for Dihedral angle
| 16> { D 2  1  0  4   C } # D for Dihedral angle
| 17> { D 1  0  4  3   C } # D for Dihedral angle
| 18> { D 14  15  16  17   C } # D for Dihedral angle
| 19> { D 15  16  17  12   C } # D for Dihedral angle
| 20> { D 16  17  12  14   C } # D for Dihedral angle
| 21> { D 17  12  14  15   C } # D for Dihedral angle
| 22> { D 12  14  15  16   C } # D for Dihedral angle
| 23> end
| 24> end
| 25>
| 26>
| 27> #%pal
| 28> #nprocs 8
| 29> #end
| 30>
| 31> * xyz 0 1
| 32> C  -21.048   26.222   46.251
| 33> C  -20.361   27.558   45.944
| 34> C  -20.329   28.222   47.341
| 35> C  -20.110   27.022   48.296
| 36> O  -20.473   25.807   47.535
| 37> H  -20.833   25.428   45.533
| 38> H  -19.344   27.382   45.576
| 39> H  -20.898   28.157   45.201
| 40> H  -19.543   28.978   47.434
| 41> H  -21.289   28.710   47.548
| 42> H  -20.733   27.082   49.195
| 43> H  -19.064   26.913   48.597
| 44> C  -24.633   25.403   46.910
| 45> H  -25.119   24.470   47.236
| 46> C  -23.203   25.146   46.420
| 47> C  -23.453   24.595   44.997
| 48> C  -24.692   25.395   44.522
| 49> O  -25.322   25.955   45.738
| 50> H  -24.713   26.145   47.706
| 51> O  -22.472   26.381   46.366
| 52> H  -22.651   24.445   47.056
| 53> H  -22.592   24.726   44.333
| 54> H  -23.680   23.523   45.041
| 55> H  -25.421   24.769   43.997
| 56> H  -24.424   26.240   43.881
| 57> *
| 58>
| 59>                          ****END OF INPUT****
 Total Charge           Charge          ....    0
 Multiplicity           Mult            ....    1
 Number of Electrons    NEL             ....   86
FINAL SINGLE POINT ENERGY      -538.436157954967
FINAL SINGLE POINT ENERGY      -538.438045078787
FINAL SINGLE POINT ENERGY      -538.438380524060
FINAL SINGLE POINT ENERGY      -538.438398794942
FINAL SINGLE POINT ENERGY      -538.438405728921
                    ***********************HURRAY********************

CARTESIAN COORDINATES (ANGSTROEM)
---------------------------------
  C    -20.992629   26.194876   46.228902
  C    -20.398628   27.577081   45.954626
  C    -20.405619   28.209220   47.365234
  C    -20.104890   27.008194   48.289782
  O    -20.394523   25.792667   47.486612
  H    -20.739752   25.412871   45.506792
  H    -19.375750   27.463541   45.577890
  H    -20.988460   28.138726   45.227564
  H    -19.667115   29.009685   47.471883
  H    -21.397029   28.619811   47.576265
  H    -20.725797   26.994145   49.189144
  H    -19.051232   26.946935   48.578206
  C    -24.592491   25.472001   46.898751
  H    -25.117269   24.574778   47.257905
  C    -23.189058   25.116059   46.409154
  C    -23.482296   24.550151   45.007291
  C    -24.671098   25.410926   44.517100
  O    -25.254622   26.036476   45.721667
  H    -24.585630   26.238480   47.674756
  O    -22.419939   26.359142   46.342538
  H    -22.673931   24.407488   47.067750
  H    -22.615544   24.609348   44.341859
  H    -23.765382   23.494313   45.095033
  H    -25.438985   24.814974   44.010684
  H    -24.352330   26.222111   43.856611

 Multiplicity           Mult            ....    1
 Number of Electrons    NEL             ....   86
 Basis Dimension        Dim             ....  127

ORBITAL ENERGIES
----------------

  NO   OCC          E(Eh)            E(eV)
   0   2.0000     -19.143083      -520.9098
   1   2.0000     -19.139036      -520.7996
   2   2.0000     -19.126235      -520.4513
   3   2.0000     -10.277815      -279.6736
   4   2.0000     -10.237074      -278.5650
   5   2.0000     -10.224135      -278.2129
   6   2.0000     -10.220128      -278.1038
   7   2.0000     -10.219926      -278.0983
   8   2.0000     -10.187475      -277.2153
   9   2.0000     -10.184046      -277.1220
  10   2.0000     -10.183321      -277.1023
  11   2.0000      -1.054682       -28.6993
  12   2.0000      -1.012735       -27.5579
  13   2.0000      -0.989109       -26.9150
  14   2.0000      -0.791399       -21.5351
  15   2.0000      -0.774880       -21.0855
  16   2.0000      -0.741501       -20.1773
  17   2.0000      -0.718727       -19.5576
  18   2.0000      -0.608803       -16.5664
  19   2.0000      -0.599149       -16.3037
  20   2.0000      -0.594703       -16.1827
  21   2.0000      -0.571537       -15.5523
  22   2.0000      -0.523971       -14.2580
  23   2.0000      -0.500087       -13.6081
  24   2.0000      -0.484431       -13.1820
  25   2.0000      -0.476226       -12.9588
  26   2.0000      -0.456105       -12.4112
  27   2.0000      -0.435671       -11.8552
  28   2.0000      -0.427021       -11.6198
  29   2.0000      -0.418540       -11.3891
  30   2.0000      -0.401695       -10.9307
  31   2.0000      -0.382247       -10.4015
  32   2.0000      -0.375827       -10.2268
  33   2.0000      -0.365989        -9.9591
  34   2.0000      -0.357400        -9.7254
  35   2.0000      -0.354438        -9.6447
  36   2.0000      -0.342067        -9.3081
  37   2.0000      -0.327634        -8.9154
  38   2.0000      -0.301637        -8.2080
  39   2.0000      -0.294791        -8.0217
  40   2.0000      -0.269117        -7.3230
  41   2.0000      -0.251769        -6.8510
  42   2.0000      -0.232184        -6.3181
  43   0.0000       0.080897         2.2013
  44   0.0000       0.097063         2.6412
  45   0.0000       0.102854         2.7988
  46   0.0000       0.111824         3.0429
  47   0.0000       0.118040         3.2120

MULLIKEN ATOMIC CHARGES
-----------------------
   0 C :    0.284291
   1 C :   -0.259595
   2 C :   -0.298780
   3 C :   -0.002659
   4 O :   -0.514939
   5 H :    0.138031
   6 H :    0.143332
   7 H :    0.158191
   8 H :    0.140512
   9 H :    0.166311
  10 H :    0.146596
  11 H :    0.141708
  12 C :    0.000259
  13 H :    0.125721
  14 C :    0.058046
  15 C :   -0.303016
  16 C :    0.005574
  17 O :   -0.518998
  18 H :    0.165928
  19 O :   -0.510252
  20 H :    0.153687
  21 H :    0.149079
  22 H :    0.145889
  23 H :    0.134682
  24 H :    0.150402
Sum of atomic charges:   -0.0000000

LOEWDIN ATOMIC CHARGES
----------------------
   0 C :    0.169615
   1 C :   -0.214519
   2 C :   -0.215798
   3 C :   -0.027489
   4 O :   -0.332558
   5 H :    0.094207
   6 H :    0.113077
   7 H :    0.124830
   8 H :    0.113218
   9 H :    0.121088
  10 H :    0.105130
  11 H :    0.102205
  12 C :   -0.033920
  13 H :    0.092321
  14 C :    0.033487
  15 C :   -0.237426
  16 C :   -0.028362
  17 O :   -0.329081
  18 H :    0.122215
  19 O :   -0.318704
  20 H :    0.109830
  21 H :    0.117610
  22 H :    0.114583
  23 H :    0.098011
  24 H :    0.106430

  Mayer bond orders larger than 0.100000
B(  0-C ,  1-C ) :   0.9490 B(  0-C ,  4-O ) :   0.9021 B(  0-C ,  5-H ) :   0.9158
B(  0-C , 19-O ) :   0.8670 B(  1-C ,  2-C ) :   0.9569 B(  1-C ,  6-H ) :   0.9406
B(  1-C ,  7-H ) :   0.9358 B(  2-C ,  3-C ) :   0.9554 B(  2-C ,  8-H ) :   0.9452
B(  2-C ,  9-H ) :   0.9434 B(  3-C ,  4-O ) :   0.8365 B(  3-C , 10-H ) :   0.9359
B(  3-C , 11-H ) :   0.9405 B( 12-C , 13-H ) :   0.9158 B( 12-C , 14-C ) :   0.9371
B( 12-C , 17-O ) :   0.8698 B( 12-C , 18-H ) :   0.9309 B( 14-C , 15-C ) :   0.9351
B( 14-C , 19-O ) :   0.8270 B( 14-C , 20-H ) :   0.9152 B( 15-C , 16-C ) :   0.9430
B( 15-C , 21-H ) :   0.9378 B( 15-C , 22-H ) :   0.9364 B( 16-C , 17-O ) :   0.8606
B( 16-C , 23-H ) :   0.9331 B( 16-C , 24-H ) :   0.9362

FINAL SINGLE POINT ENERGY      -538.438406165713

DIPOLE MOMENT
-------------
                                X             Y             Z
Electronic contribution:     -1.67723      -0.95483       0.74037
Nuclear contribution   :      2.43436       0.72992      -0.93033
                        -----------------------------------------
Total Dipole Moment    :      0.75713      -0.22491      -0.18997
                        -----------------------------------------
Magnitude (a.u.)       :      0.81235
Magnitude (Debye)      :      2.06483

Rotational constants in cm-1:     0.083526     0.019813     0.019632
Rotational constants in MHz :  2504.048670   593.985905   588.542923

                             ****ORCA TERMINATED NORMALLY****
TOTAL RUN TIME: 0 days 0 hours 5 minutes 44 seconds 310 msec
