                         Program Version 4.2.1 -  RELEASE  -
|  1> # Test redundant internal optimization
|  2> #
|  3> ! RKS B3LYP  Opt TightSCF SmallPrint
|  4>
|  5> %basis
|  6>         Basis "6-31G"
|  7> end
|  8>
|  9> %geom
| 10> Constraints
| 11> { D 4  0  19  14  195.0   C } # D for Dihedral angle
| 12> { D 0  19  14  12  225.0   C } # D for Dihedral angle
| 13> { D 0  4  3  2   C } # D for Dihedral angle
| 14> { D 4  3  2  1   C } # D for Dihedral angle
| 15> { D 3  2  1  0   C } # D for Dihedral angle
| 16> { D 2  1  0  4   C } # D for Dihedral angle
| 17> { D 1  0  4  3   C } # D for Dihedral angle
| 18> { D 14  15  16  17   C } # D for Dihedral angle
| 19> { D 15  16  17  12   C } # D for Dihedral angle
| 20> { D 16  17  12  14   C } # D for Dihedral angle
| 21> { D 17  12  14  15   C } # D for Dihedral angle
| 22> { D 12  14  15  16   C } # D for Dihedral angle
| 23> end
| 24> end
| 25>
| 26>
| 27> #%pal
| 28> #nprocs 8
| 29> #end
| 30>
| 31> * xyz 0 1
| 32> C  -21.048   26.222   46.251
| 33> C  -20.361   27.558   45.944
| 34> C  -20.329   28.222   47.341
| 35> C  -20.110   27.022   48.296
| 36> O  -20.473   25.807   47.535
| 37> H  -20.833   25.428   45.533
| 38> H  -19.344   27.382   45.576
| 39> H  -20.898   28.157   45.201
| 40> H  -19.543   28.978   47.434
| 41> H  -21.289   28.710   47.548
| 42> H  -20.733   27.082   49.195
| 43> H  -19.064   26.913   48.597
| 44> C  -24.189   27.590   45.136
| 45> H  -24.922   27.489   44.320
| 46> C  -23.163   26.451   45.109
| 47> C  -22.208   26.916   43.985
| 48> C  -22.194   28.456   44.149
| 49> O  -23.386   28.804   44.954
| 50> H  -24.721   27.698   46.083
| 51> O  -22.472   26.381   46.366
| 52> H  -23.613   25.473   44.907
| 53> H  -21.209   26.478   44.069
| 54> H  -22.615   26.636   43.005
| 55> H  -22.245   28.982   43.189
| 56> H  -21.318   28.810   44.701
| 57> *
| 58>
| 59>                          ****END OF INPUT****
 Total Charge           Charge          ....    0
 Multiplicity           Mult            ....    1
 Number of Electrons    NEL             ....   86
FINAL SINGLE POINT ENERGY      -538.341654642433
FINAL SINGLE POINT ENERGY      -538.415247046643
FINAL SINGLE POINT ENERGY      -538.419612047961
FINAL SINGLE POINT ENERGY      -538.420572179995
FINAL SINGLE POINT ENERGY      -538.420830079172
FINAL SINGLE POINT ENERGY      -538.420919990906
FINAL SINGLE POINT ENERGY      -538.420939501956
FINAL SINGLE POINT ENERGY      -538.420946301756
                    ***********************HURRAY********************

CARTESIAN COORDINATES (ANGSTROEM)
---------------------------------
  C    -20.802778   26.238113   46.268418
  C    -20.057276   27.565889   46.141777
  C    -20.276293   28.195480   47.541872
  C    -20.252942   26.964111   48.470370
  O    -20.486583   25.791760   47.593852
  H    -20.487250   25.454727   45.571517
  H    -18.993542   27.353845   45.974256
  H    -20.412095   28.202523   45.335982
  H    -19.505919   28.929018   47.796462
  H    -21.252484   28.687433   47.567997
  H    -21.033297   26.986304   49.235640
  H    -19.280402   26.808853   48.947854
  C    -24.093422   27.641499   45.259363
  H    -24.995489   27.466116   44.656916
  C    -23.075717   26.518748   45.048799
  C    -22.449252   26.922424   43.703741
  C    -22.435571   28.471897   43.753450
  O    -23.401184   28.861481   44.809591
  H    -24.358685   27.775974   46.307556
  O    -22.253283   26.386239   46.248247
  H    -23.588316   25.552679   44.938385
  H    -21.457768   26.493109   43.530800
  H    -23.107165   26.565651   42.904784
  H    -22.757384   28.913083   42.802487
  H    -21.465903   28.898046   44.013886

 Multiplicity           Mult            ....    1
 Number of Electrons    NEL             ....   86
 Basis Dimension        Dim             ....  127

ORBITAL ENERGIES
----------------

  NO   OCC          E(Eh)            E(eV)
   0   2.0000     -19.136430      -520.7287
   1   2.0000     -19.135397      -520.7006
   2   2.0000     -19.133820      -520.6577
   3   2.0000     -10.280384      -279.7435
   4   2.0000     -10.243120      -278.7295
   5   2.0000     -10.229449      -278.3575
   6   2.0000     -10.222456      -278.1672
   7   2.0000     -10.220900      -278.1248
   8   2.0000     -10.198250      -277.5085
   9   2.0000     -10.183250      -277.1003
  10   2.0000     -10.181302      -277.0473
  11   2.0000      -1.049524       -28.5590
  12   2.0000      -1.016180       -27.6517
  13   2.0000      -0.984187       -26.7811
  14   2.0000      -0.789953       -21.4957
  15   2.0000      -0.781600       -21.2684
  16   2.0000      -0.748877       -20.3780
  17   2.0000      -0.720312       -19.6007
  18   2.0000      -0.619479       -16.8569
  19   2.0000      -0.605278       -16.4704
  20   2.0000      -0.595300       -16.1989
  21   2.0000      -0.566455       -15.4140
  22   2.0000      -0.518216       -14.1014
  23   2.0000      -0.503687       -13.7060
  24   2.0000      -0.491889       -13.3850
  25   2.0000      -0.484795       -13.1919
  26   2.0000      -0.455137       -12.3849
  27   2.0000      -0.445838       -12.1319
  28   2.0000      -0.423700       -11.5295
  29   2.0000      -0.419264       -11.4088
  30   2.0000      -0.404073       -10.9954
  31   2.0000      -0.389721       -10.6048
  32   2.0000      -0.376752       -10.2519
  33   2.0000      -0.372073       -10.1246
  34   2.0000      -0.364243        -9.9115
  35   2.0000      -0.352927        -9.6036
  36   2.0000      -0.346217        -9.4210
  37   2.0000      -0.311345        -8.4721
  38   2.0000      -0.308394        -8.3918
  39   2.0000      -0.294126        -8.0036
  40   2.0000      -0.256263        -6.9733
  41   2.0000      -0.247243        -6.7278
  42   2.0000      -0.239822        -6.5259
  43   0.0000       0.072545         1.9741
  44   0.0000       0.086806         2.3621
  45   0.0000       0.098217         2.6726
  46   0.0000       0.105480         2.8703
  47   0.0000       0.111031         3.0213

MULLIKEN ATOMIC CHARGES
-----------------------
   0 C :    0.304174
   1 C :   -0.276231
   2 C :   -0.302854
   3 C :   -0.000119
   4 O :   -0.500189
   5 H :    0.136482
   6 H :    0.142218
   7 H :    0.145097
   8 H :    0.140170
   9 H :    0.173663
  10 H :    0.153777
  11 H :    0.139895
  12 C :   -0.004728
  13 H :    0.126149
  14 C :    0.099876
  15 C :   -0.325580
  16 C :   -0.003273
  17 O :   -0.524686
  18 H :    0.171661
  19 O :   -0.526541
  20 H :    0.138587
  21 H :    0.149018
  22 H :    0.155822
  23 H :    0.137305
  24 H :    0.150308
Sum of atomic charges:   -0.0000000

LOEWDIN ATOMIC CHARGES
----------------------
   0 C :    0.186916
   1 C :   -0.232767
   2 C :   -0.216947
   3 C :   -0.025408
   4 O :   -0.302782
   5 H :    0.093801
   6 H :    0.112790
   7 H :    0.116215
   8 H :    0.113755
   9 H :    0.124248
  10 H :    0.108930
  11 H :    0.101035
  12 C :   -0.036657
  13 H :    0.092248
  14 C :    0.043588
  15 C :   -0.239599
  16 C :   -0.033131
  17 O :   -0.334340
  18 H :    0.125232
  19 O :   -0.337958
  20 H :    0.100614
  21 H :    0.118575
  22 H :    0.122985
  23 H :    0.098935
  24 H :    0.099723

  Mayer bond orders larger than 0.100000
B(  0-C ,  1-C ) :   0.9308 B(  0-C ,  4-O ) :   0.9385 B(  0-C ,  5-H ) :   0.9216
B(  0-C , 19-O ) :   0.8254 B(  1-C ,  2-C ) :   0.9534 B(  1-C ,  6-H ) :   0.9331
B(  1-C ,  7-H ) :   0.9164 B(  2-C ,  3-C ) :   0.9548 B(  2-C ,  8-H ) :   0.9448
B(  2-C ,  9-H ) :   0.9396 B(  3-C ,  4-O ) :   0.8319 B(  3-C , 10-H ) :   0.9351
B(  3-C , 11-H ) :   0.9398 B( 12-C , 13-H ) :   0.9145 B( 12-C , 14-C ) :   0.9219
B( 12-C , 17-O ) :   0.8606 B( 12-C , 18-H ) :   0.9313 B( 14-C , 15-C ) :   0.9317
B( 14-C , 19-O ) :   0.8577 B( 14-C , 20-H ) :   0.9271 B( 15-C , 16-C ) :   0.9400
B( 15-C , 21-H ) :   0.9359 B( 15-C , 22-H ) :   0.9352 B( 16-C , 17-O ) :   0.8660
B( 16-C , 23-H ) :   0.9316 B( 16-C , 24-H ) :   0.9174

FINAL SINGLE POINT ENERGY      -538.420947520508

DIPOLE MOMENT
-------------
                                X             Y             Z
Electronic contribution:     -1.75750      -2.50977       1.90115
Nuclear contribution   :      2.15859       2.62815      -2.81738
                        -----------------------------------------
Total Dipole Moment    :      0.40109       0.11838      -0.91622
                        -----------------------------------------
Magnitude (a.u.)       :      1.00715
Magnitude (Debye)      :      2.55997

Rotational constants in cm-1:     0.070899     0.023935     0.022721
Rotational constants in MHz :  2125.493886   717.538859   681.164220

                             ****ORCA TERMINATED NORMALLY****
TOTAL RUN TIME: 0 days 0 hours 9 minutes 56 seconds 155 msec
