                         Program Version 4.2.0 -  RELEASE  -
|  1> # Test redundant internal optimization
|  2> #
|  3> ! RKS B3LYP  Opt TightSCF SmallPrint
|  4>
|  5> %basis
|  6>         Basis "6-31G"
|  7> end
|  8>
|  9> %geom
| 10> Constraints
| 11> { D 4  0  15  12  285.0   C } # D for Dihedral angle
| 12> { D 0  15  12  16  30.0   C } # D for Dihedral angle
| 13> { D 0  4  3  2   C } # D for Dihedral angle
| 14> { D 4  3  2  1   C } # D for Dihedral angle
| 15> { D 3  2  1  0   C } # D for Dihedral angle
| 16> { D 2  1  0  4   C } # D for Dihedral angle
| 17> { D 1  0  4  3   C } # D for Dihedral angle
| 18> { D 16  20  19  18   C } # D for Dihedral angle
| 19> { D 20  19  18  17   C } # D for Dihedral angle
| 20> { D 19  18  17  16   C } # D for Dihedral angle
| 21> { D 18  17  16  20   C } # D for Dihedral angle
| 22> { D 17  16  20  19   C } # D for Dihedral angle
| 23> { D 15  12  16  20   C } # D for Dihedral angle
| 24> end
| 25> end
| 26>
| 27>
| 28> #%pal
| 29> #nprocs 8
| 30> #end
| 31>
| 32> * xyz 0 1
| 33> C  -21.048   26.222   46.251
| 34> C  -20.361   27.558   45.944
| 35> C  -20.329   28.222   47.341
| 36> C  -20.110   27.022   48.296
| 37> O  -20.473   25.807   47.535
| 38> H  -20.833   25.428   45.533
| 39> H  -19.344   27.382   45.576
| 40> H  -20.898   28.157   45.201
| 41> H  -19.543   28.978   47.434
| 42> H  -21.289   28.710   47.548
| 43> H  -20.733   27.082   49.195
| 44> H  -19.064   26.913   48.597
| 45> C  -23.396   25.070   46.435
| 46> H  -24.310   25.231   47.021
| 47> H  -23.687   24.752   45.426
| 48> O  -22.586   26.394   46.375
| 49> C  -22.597   23.907   47.086
| 50> C  -23.381   22.591   47.024
| 51> C  -23.135   22.147   45.562
| 52> C  -21.686   22.623   45.290
| 53> O  -21.375   23.635   46.323
| 54> H  -22.289   24.202   48.091
| 55> H  -22.954   21.865   47.725
| 56> O  -24.889   22.763   47.355
| 57> H  -23.253   21.068   45.420
| 58> H  -23.840   22.653   44.892
| 59> H  -21.573   23.077   44.299
| 60> H  -20.954   21.817   45.397
| 61> H  -25.338   23.485   46.665
| 62> *
| 63>
| 64>                          ****END OF INPUT****
 Total Charge           Charge          ....    0
 Multiplicity           Mult            ....    1
 Number of Electrons    NEL             ....  102
FINAL SINGLE POINT ENERGY      -652.822796027140
FINAL SINGLE POINT ENERGY      -652.846765731139
FINAL SINGLE POINT ENERGY      -652.854544046143
FINAL SINGLE POINT ENERGY      -652.856357076875
FINAL SINGLE POINT ENERGY      -652.856668228192
FINAL SINGLE POINT ENERGY      -652.856747497552
FINAL SINGLE POINT ENERGY      -652.856753652724
FINAL SINGLE POINT ENERGY      -652.856754801547
                    ***********************HURRAY********************

CARTESIAN COORDINATES (ANGSTROEM)
---------------------------------
  C    -20.899811   26.257813   46.218742
  C    -20.428618   27.693782   45.981342
  C    -20.474366   28.282297   47.411256
  C    -20.062365   27.084033   48.294923
  O    -20.255400   25.872696   47.459418
  H    -20.602219   25.511849   45.483781
  H    -19.403137   27.673939   45.594997
  H    -21.068026   28.226274   45.274368
  H    -19.806823   29.140496   47.536379
  H    -21.495083   28.599482   47.642586
  H    -20.669491   26.993336   49.199921
  H    -19.004458   27.107118   48.574205
  C    -23.156585   25.117367   46.418994
  H    -24.024509   25.402686   47.022005
  H    -23.505540   24.899972   45.396551
  O    -22.337782   26.319814   46.354880
  C    -22.539905   23.852785   47.025242
  C    -23.485463   22.637181   46.994914
  C    -23.266944   22.098459   45.547452
  C    -21.768367   22.380458   45.301416
  O    -21.350269   23.394627   46.305416
  H    -22.190008   24.079394   48.034368
  H    -23.149892   21.903834   47.730925
  O    -24.863450   22.906091   47.347743
  H    -23.520782   21.038732   45.458513
  H    -23.902056   22.658150   44.848399
  H    -21.567392   22.766758   44.296448
  H    -21.147206   21.495471   45.466621
  H    -25.322053   23.366107   46.615192

 Multiplicity           Mult            ....    1
 Number of Electrons    NEL             ....  102
 Basis Dimension        Dim             ....  149

ORBITAL ENERGIES
----------------

  NO   OCC          E(Eh)            E(eV)
   0   2.0000     -19.150894      -521.1223
   1   2.0000     -19.139284      -520.8064
   2   2.0000     -19.134276      -520.6701
   3   2.0000     -19.125925      -520.4429
   4   2.0000     -10.263814      -279.2926
   5   2.0000     -10.246288      -278.8157
   6   2.0000     -10.231871      -278.4234
   7   2.0000     -10.228722      -278.3377
   8   2.0000     -10.228124      -278.3214
   9   2.0000     -10.214079      -277.9392
  10   2.0000     -10.196817      -277.4695
  11   2.0000     -10.175229      -276.8821
  12   2.0000     -10.174979      -276.8753
  13   2.0000      -1.042534       -28.3688
  14   2.0000      -1.032641       -28.0996
  15   2.0000      -1.015359       -27.6293
  16   2.0000      -0.981536       -26.7089
  17   2.0000      -0.784610       -21.3503
  18   2.0000      -0.778704       -21.1896
  19   2.0000      -0.761207       -20.7135
  20   2.0000      -0.725304       -19.7365
  21   2.0000      -0.676405       -18.4059
  22   2.0000      -0.613001       -16.6806
  23   2.0000      -0.594891       -16.1878
  24   2.0000      -0.587432       -15.9848
  25   2.0000      -0.562863       -15.3163
  26   2.0000      -0.527125       -14.3438
  27   2.0000      -0.508262       -13.8305
  28   2.0000      -0.494285       -13.4502
  29   2.0000      -0.475643       -12.9429
  30   2.0000      -0.462663       -12.5897
  31   2.0000      -0.452899       -12.3240
  32   2.0000      -0.441649       -12.0179
  33   2.0000      -0.429785       -11.6950
  34   2.0000      -0.425022       -11.5654
  35   2.0000      -0.413515       -11.2523
  36   2.0000      -0.405189       -11.0258
  37   2.0000      -0.389189       -10.5904
  38   2.0000      -0.381960       -10.3936
  39   2.0000      -0.363395        -9.8885
  40   2.0000      -0.355840        -9.6829
  41   2.0000      -0.346602        -9.4315
  42   2.0000      -0.337532        -9.1847
  43   2.0000      -0.328983        -8.9521
  44   2.0000      -0.320435        -8.7195
  45   2.0000      -0.311274        -8.4702
  46   2.0000      -0.288611        -7.8535
  47   2.0000      -0.271862        -7.3977
  48   2.0000      -0.258542        -7.0353
  49   2.0000      -0.247729        -6.7410
  50   2.0000      -0.231542        -6.3006
  51   0.0000       0.050127         1.3640
  52   0.0000       0.074383         2.0241
  53   0.0000       0.092702         2.5226
  54   0.0000       0.098899         2.6912
  55   0.0000       0.108928         2.9641

MULLIKEN ATOMIC CHARGES
-----------------------
   0 C :    0.299028
   1 C :   -0.258338
   2 C :   -0.295287
   3 C :   -0.004947
   4 O :   -0.503828
   5 H :    0.161581
   6 H :    0.142143
   7 H :    0.150247
   8 H :    0.134628
   9 H :    0.159073
  10 H :    0.140376
  11 H :    0.139200
  12 C :    0.001849
  13 H :    0.153477
  14 H :    0.112735
  15 O :   -0.541604
  16 C :    0.075487
  17 C :    0.080210
  18 C :   -0.322065
  19 C :   -0.014025
  20 O :   -0.504757
  21 H :    0.178833
  22 H :    0.173223
  23 O :   -0.598899
  24 H :    0.157403
  25 H :    0.133367
  26 H :    0.138566
  27 H :    0.155050
  28 H :    0.357275
Sum of atomic charges:   -0.0000000

LOEWDIN ATOMIC CHARGES
----------------------
   0 C :    0.174523
   1 C :   -0.215381
   2 C :   -0.216105
   3 C :   -0.031043
   4 O :   -0.320416
   5 H :    0.107926
   6 H :    0.112290
   7 H :    0.120799
   8 H :    0.110031
   9 H :    0.117564
  10 H :    0.101531
  11 H :    0.100685
  12 C :   -0.045092
  13 H :    0.115653
  14 H :    0.084142
  15 O :   -0.331018
  16 C :    0.007250
  17 C :    0.036777
  18 C :   -0.242030
  19 C :   -0.032951
  20 O :   -0.311315
  21 H :    0.126521
  22 H :    0.121640
  23 O :   -0.405936
  24 H :    0.122514
  25 H :    0.104057
  26 H :    0.100039
  27 H :    0.108488
  28 H :    0.278855

  Mayer bond orders larger than 0.100000
B(  0-C ,  1-C ) :   0.9450 B(  0-C ,  4-O ) :   0.8946 B(  0-C ,  5-H ) :   0.9135
B(  0-C , 15-O ) :   0.8402 B(  1-C ,  2-C ) :   0.9560 B(  1-C ,  6-H ) :   0.9417
B(  1-C ,  7-H ) :   0.9375 B(  2-C ,  3-C ) :   0.9542 B(  2-C ,  8-H ) :   0.9462
B(  2-C ,  9-H ) :   0.9446 B(  3-C ,  4-O ) :   0.8467 B(  3-C , 10-H ) :   0.9360
B(  3-C , 11-H ) :   0.9404 B( 12-C , 13-H ) :   0.9187 B( 12-C , 14-H ) :   0.9249
B( 12-C , 15-O ) :   0.8588 B( 12-C , 16-C ) :   0.9031 B( 16-C , 17-C ) :   0.8685
B( 16-C , 20-O ) :   0.8448 B( 16-C , 21-H ) :   0.9209 B( 17-C , 18-C ) :   0.9230
B( 17-C , 22-H ) :   0.9317 B( 17-C , 23-O ) :   0.9000 B( 18-C , 19-C ) :   0.9395
B( 18-C , 24-H ) :   0.9419 B( 18-C , 25-H ) :   0.9397 B( 19-C , 20-O ) :   0.8475
B( 19-C , 26-H ) :   0.9323 B( 19-C , 27-H ) :   0.9372 B( 23-O , 28-H ) :   0.7978

FINAL SINGLE POINT ENERGY      -652.856754623570

DIPOLE MOMENT
-------------
                                X             Y             Z
Electronic contribution:     -0.86713      -2.25971       1.47846
Nuclear contribution   :      0.56786       2.25965      -2.37542
                        -----------------------------------------
Total Dipole Moment    :     -0.29927      -0.00006      -0.89696
                        -----------------------------------------
Magnitude (a.u.)       :      0.94557
Magnitude (Debye)      :      2.40344

Rotational constants in cm-1:     0.057376     0.014146     0.013290
Rotational constants in MHz :  1720.100240   424.085575   398.428906

                             ****ORCA TERMINATED NORMALLY****
TOTAL RUN TIME: 0 days 1 hours 57 minutes 11 seconds 954 msec
