                         Program Version 4.2.0 -  RELEASE  -
|  1> # Test redundant internal optimization
|  2> #
|  3> ! RKS B3LYP  Opt TightSCF SmallPrint
|  4>
|  5> %basis
|  6>         Basis "6-31G"
|  7> end
|  8>
|  9> %geom
| 10> Constraints
| 11> { D 4  0  15  12  180.0   C } # D for Dihedral angle
| 12> { D 0  15  12  16  285.0   C } # D for Dihedral angle
| 13> { D 0  4  3  2   C } # D for Dihedral angle
| 14> { D 4  3  2  1   C } # D for Dihedral angle
| 15> { D 3  2  1  0   C } # D for Dihedral angle
| 16> { D 2  1  0  4   C } # D for Dihedral angle
| 17> { D 1  0  4  3   C } # D for Dihedral angle
| 18> { D 16  20  19  18   C } # D for Dihedral angle
| 19> { D 20  19  18  17   C } # D for Dihedral angle
| 20> { D 19  18  17  16   C } # D for Dihedral angle
| 21> { D 18  17  16  20   C } # D for Dihedral angle
| 22> { D 17  16  20  19   C } # D for Dihedral angle
| 23> { D 15  12  16  20   C } # D for Dihedral angle
| 24> end
| 25> end
| 26>
| 27>
| 28> #%pal
| 29> #nprocs 8
| 30> #end
| 31>
| 32> * xyz 0 1
| 33> C  -21.048   26.222   46.251
| 34> C  -20.361   27.558   45.944
| 35> C  -20.329   28.222   47.341
| 36> C  -20.110   27.022   48.296
| 37> O  -20.473   25.807   47.535
| 38> H  -20.833   25.428   45.533
| 39> H  -19.344   27.382   45.576
| 40> H  -20.898   28.157   45.201
| 41> H  -19.543   28.978   47.434
| 42> H  -21.289   28.710   47.548
| 43> H  -20.733   27.082   49.195
| 44> H  -19.064   26.913   48.597
| 45> C  -23.309   26.834   45.072
| 46> H  -22.935   26.235   44.232
| 47> H  -24.390   26.667   45.158
| 48> O  -22.586   26.394   46.375
| 49> C  -23.086   28.335   44.739
| 50> C  -23.905   28.761   43.516
| 51> C  -25.313   28.946   44.129
| 52> C  -25.010   29.499   45.545
| 53> O  -23.593   29.181   45.825
| 54> H  -22.015   28.528   44.656
| 55> H  -23.527   29.711   43.121
| 56> O  -23.881   27.712   42.370
| 57> H  -25.946   29.622   43.544
| 58> H  -25.826   27.979   44.194
| 59> H  -25.639   29.042   46.317
| 60> H  -25.114   30.586   45.600
| 61> H  -24.256   26.752   42.741
| 62> *
| 63>
| 64>                          ****END OF INPUT****
 Total Charge           Charge          ....    0
 Multiplicity           Mult            ....    1
 Number of Electrons    NEL             ....  102
FINAL SINGLE POINT ENERGY      -652.808197163199
FINAL SINGLE POINT ENERGY      -652.832155413541
FINAL SINGLE POINT ENERGY      -652.845826280026
FINAL SINGLE POINT ENERGY      -652.848185540792
FINAL SINGLE POINT ENERGY      -652.848734435511
FINAL SINGLE POINT ENERGY      -652.848828888487
FINAL SINGLE POINT ENERGY      -652.848842884751
FINAL SINGLE POINT ENERGY      -652.848845380586
                    ***********************HURRAY********************

CARTESIAN COORDINATES (ANGSTROEM)
---------------------------------
  C    -20.960526   26.257877   46.180257
  C    -20.140505   27.532695   45.984430
  C    -20.268172   28.217498   47.371101
  C    -20.285201   27.015570   48.336490
  O    -20.622844   25.834068   47.505955
  H    -20.717369   25.442913   45.489154
  H    -19.100324   27.234148   45.799924
  H    -20.452919   28.166380   45.157082
  H    -19.443185   28.906823   47.573606
  H    -21.211093   28.770451   47.418270
  H    -21.034722   27.108885   49.126362
  H    -19.307123   26.813562   48.783982
  C    -23.183901   26.876661   45.069299
  H    -22.916006   26.270195   44.187164
  H    -24.210197   26.627524   45.357019
  O    -22.410945   26.444369   46.217310
  C    -23.102951   28.354121   44.665838
  C    -24.032590   28.692149   43.485452
  C    -25.409298   28.876064   44.200049
  C    -25.003585   29.512400   45.549051
  O    -23.554259   29.244388   45.731455
  H    -22.078462   28.643786   44.439373
  H    -23.712058   29.636048   43.038520
  O    -24.025935   27.751775   42.385645
  H    -26.091615   29.504517   43.621778
  H    -25.886643   27.897686   44.340797
  H    -25.550815   29.095726   46.399783
  H    -25.128528   30.599358   45.546715
  H    -24.514228   26.937363   42.623141

 Multiplicity           Mult            ....    1
 Number of Electrons    NEL             ....  102
 Basis Dimension        Dim             ....  149

ORBITAL ENERGIES
----------------

  NO   OCC          E(Eh)            E(eV)
   0   2.0000     -19.155262      -521.2412
   1   2.0000     -19.143509      -520.9214
   2   2.0000     -19.133371      -520.6455
   3   2.0000     -19.133270      -520.6427
   4   2.0000     -10.276184      -279.6292
   5   2.0000     -10.250737      -278.9367
   6   2.0000     -10.235419      -278.5199
   7   2.0000     -10.235081      -278.5107
   8   2.0000     -10.232973      -278.4534
   9   2.0000     -10.217479      -278.0317
  10   2.0000     -10.200339      -277.5653
  11   2.0000     -10.182399      -277.0772
  12   2.0000     -10.177215      -276.9361
  13   2.0000      -1.047543       -28.5051
  14   2.0000      -1.038564       -28.2608
  15   2.0000      -1.020976       -27.7822
  16   2.0000      -0.985085       -26.8055
  17   2.0000      -0.787507       -21.4292
  18   2.0000      -0.779194       -21.2030
  19   2.0000      -0.769969       -20.9519
  20   2.0000      -0.732213       -19.9245
  21   2.0000      -0.682644       -18.5757
  22   2.0000      -0.616620       -16.7791
  23   2.0000      -0.599398       -16.3104
  24   2.0000      -0.592829       -16.1317
  25   2.0000      -0.573596       -15.6083
  26   2.0000      -0.527912       -14.3652
  27   2.0000      -0.512973       -13.9587
  28   2.0000      -0.495064       -13.4714
  29   2.0000      -0.493248       -13.4220
  30   2.0000      -0.465714       -12.6727
  31   2.0000      -0.453136       -12.3305
  32   2.0000      -0.445152       -12.1132
  33   2.0000      -0.439962       -11.9720
  34   2.0000      -0.431557       -11.7433
  35   2.0000      -0.420893       -11.4531
  36   2.0000      -0.409788       -11.1509
  37   2.0000      -0.402722       -10.9586
  38   2.0000      -0.380357       -10.3500
  39   2.0000      -0.373407       -10.1609
  40   2.0000      -0.359689        -9.7876
  41   2.0000      -0.349617        -9.5136
  42   2.0000      -0.345074        -9.3900
  43   2.0000      -0.334326        -9.0975
  44   2.0000      -0.320747        -8.7280
  45   2.0000      -0.304542        -8.2870
  46   2.0000      -0.289249        -7.8709
  47   2.0000      -0.276539        -7.5250
  48   2.0000      -0.263973        -7.1831
  49   2.0000      -0.251659        -6.8480
  50   2.0000      -0.235739        -6.4148
  51   0.0000       0.049194         1.3386
  52   0.0000       0.075026         2.0416
  53   0.0000       0.079345         2.1591
  54   0.0000       0.093217         2.5366
  55   0.0000       0.102187         2.7806

MULLIKEN ATOMIC CHARGES
-----------------------
   0 C :    0.304191
   1 C :   -0.280276
   2 C :   -0.309289
   3 C :    0.000965
   4 O :   -0.499067
   5 H :    0.137416
   6 H :    0.144430
   7 H :    0.141552
   8 H :    0.137233
   9 H :    0.187300
  10 H :    0.154382
  11 H :    0.138307
  12 C :   -0.014500
  13 H :    0.117838
  14 H :    0.147609
  15 O :   -0.508025
  16 C :    0.079252
  17 C :    0.085731
  18 C :   -0.331406
  19 C :   -0.009526
  20 O :   -0.511623
  21 H :    0.157331
  22 H :    0.167092
  23 O :   -0.599400
  24 H :    0.161444
  25 H :    0.139051
  26 H :    0.150688
  27 H :    0.152448
  28 H :    0.358852
Sum of atomic charges:   -0.0000000

LOEWDIN ATOMIC CHARGES
----------------------
   0 C :    0.186127
   1 C :   -0.232134
   2 C :   -0.220240
   3 C :   -0.024700
   4 O :   -0.301765
   5 H :    0.095073
   6 H :    0.114620
   7 H :    0.111858
   8 H :    0.112457
   9 H :    0.129903
  10 H :    0.109523
  11 H :    0.100211
  12 C :   -0.049537
  13 H :    0.090920
  14 H :    0.110741
  15 O :   -0.327783
  16 C :    0.004847
  17 C :    0.035984
  18 C :   -0.242920
  19 C :   -0.028951
  20 O :   -0.320942
  21 H :    0.110705
  22 H :    0.118752
  23 O :   -0.406349
  24 H :    0.124187
  25 H :    0.106299
  26 H :    0.106580
  27 H :    0.107302
  28 H :    0.279231

  Mayer bond orders larger than 0.100000
B(  0-C ,  1-C ) :   0.9280 B(  0-C ,  4-O ) :   0.9402 B(  0-C ,  5-H ) :   0.9206
B(  0-C , 15-O ) :   0.8371 B(  1-C ,  2-C ) :   0.9517 B(  1-C ,  6-H ) :   0.9322
B(  1-C ,  7-H ) :   0.9213 B(  2-C ,  3-C ) :   0.9546 B(  2-C ,  8-H ) :   0.9450
B(  2-C ,  9-H ) :   0.9315 B(  3-C ,  4-O ) :   0.8315 B(  3-C , 10-H ) :   0.9351
B(  3-C , 11-H ) :   0.9401 B( 12-C , 13-H ) :   0.9029 B( 12-C , 14-H ) :   0.9380
B( 12-C , 15-O ) :   0.8798 B( 12-C , 16-C ) :   0.8780 B( 16-C , 17-C ) :   0.8646
B( 16-C , 20-O ) :   0.8636 B( 16-C , 21-H ) :   0.9167 B( 17-C , 18-C ) :   0.9211
B( 17-C , 22-H ) :   0.9335 B( 17-C , 23-O ) :   0.9008 B( 18-C , 19-C ) :   0.9390
B( 18-C , 24-H ) :   0.9413 B( 18-C , 25-H ) :   0.9402 B( 19-C , 20-O ) :   0.8431
B( 19-C , 26-H ) :   0.9311 B( 19-C , 27-H ) :   0.9372 B( 23-O , 28-H ) :   0.7961

FINAL SINGLE POINT ENERGY      -652.848845612944

DIPOLE MOMENT
-------------
                                X             Y             Z
Electronic contribution:     -0.05773      -3.10824      -0.24095
Nuclear contribution   :     -0.49365       3.79475      -0.31437
                        -----------------------------------------
Total Dipole Moment    :     -0.55137       0.68651      -0.55532
                        -----------------------------------------
Magnitude (a.u.)       :      1.04100
Magnitude (Debye)      :      2.64601

Rotational constants in cm-1:     0.053552     0.014086     0.012918
Rotational constants in MHz :  1605.463316   422.290730   387.262305

                             ****ORCA TERMINATED NORMALLY****
TOTAL RUN TIME: 0 days 0 hours 22 minutes 49 seconds 698 msec
