                         Program Version 4.2.0 -  RELEASE  -
|  1> # Test redundant internal optimization
|  2> #
|  3> ! RKS B3LYP  Opt TightSCF SmallPrint
|  4>
|  5> %basis
|  6>         Basis "6-31G"
|  7> end
|  8>
|  9> %geom
| 10> Constraints
| 11> { D 4  0  15  12  180.0   C } # D for Dihedral angle
| 12> { D 0  15  12  16  30.0   C } # D for Dihedral angle
| 13> { D 0  4  3  2   C } # D for Dihedral angle
| 14> { D 4  3  2  1   C } # D for Dihedral angle
| 15> { D 3  2  1  0   C } # D for Dihedral angle
| 16> { D 2  1  0  4   C } # D for Dihedral angle
| 17> { D 1  0  4  3   C } # D for Dihedral angle
| 18> { D 16  20  19  18   C } # D for Dihedral angle
| 19> { D 20  19  18  17   C } # D for Dihedral angle
| 20> { D 19  18  17  16   C } # D for Dihedral angle
| 21> { D 18  17  16  20   C } # D for Dihedral angle
| 22> { D 17  16  20  19   C } # D for Dihedral angle
| 23> { D 15  12  16  20   C } # D for Dihedral angle
| 24> end
| 25> end
| 26>
| 27>
| 28> #%pal
| 29> #nprocs 8
| 30> #end
| 31>
| 32> * xyz 0 1
| 33> C  -21.048   26.222   46.251
| 34> C  -20.361   27.558   45.944
| 35> C  -20.329   28.222   47.341
| 36> C  -20.110   27.022   48.296
| 37> O  -20.473   25.807   47.535
| 38> H  -20.833   25.428   45.533
| 39> H  -19.344   27.382   45.576
| 40> H  -20.898   28.157   45.201
| 41> H  -19.543   28.978   47.434
| 42> H  -21.289   28.710   47.548
| 43> H  -20.733   27.082   49.195
| 44> H  -19.064   26.913   48.597
| 45> C  -23.309   26.834   45.072
| 46> H  -24.332   26.437   45.074
| 47> H  -23.365   27.928   45.015
| 48> O  -22.586   26.394   46.375
| 49> C  -22.592   26.329   43.789
| 50> C  -22.618   24.799   43.702
| 51> C  -24.054   24.539   43.188
| 52> C  -24.312   25.738   42.242
| 53> O  -23.315   26.772   42.591
| 54> H  -21.594   26.768   43.740
| 55> H  -21.878   24.452   42.972
| 56> O  -22.328   24.106   45.061
| 57> H  -24.154   23.575   42.679
| 58> H  -24.761   24.549   44.027
| 59> H  -25.318   26.155   42.359
| 60> H  -24.156   25.481   41.191
| 61> H  -23.058   24.439   45.807
| 62> *
| 63>
| 64>                          ****END OF INPUT****
 Total Charge           Charge          ....    0
 Multiplicity           Mult            ....    1
 Number of Electrons    NEL             ....  102
FINAL SINGLE POINT ENERGY      -652.823990373839
FINAL SINGLE POINT ENERGY      -652.848896280901
FINAL SINGLE POINT ENERGY      -652.853979624804
FINAL SINGLE POINT ENERGY      -652.855675015727
FINAL SINGLE POINT ENERGY      -652.855846422887
FINAL SINGLE POINT ENERGY      -652.855886070354
FINAL SINGLE POINT ENERGY      -652.855894293454
                    ***********************HURRAY********************

CARTESIAN COORDINATES (ANGSTROEM)
---------------------------------
  C    -20.978890   26.218898   46.283230
  C    -20.200861   27.503292   46.003809
  C    -20.353705   28.271201   47.341198
  C    -20.333976   27.138104   48.387011
  O    -20.632108   25.891897   47.632810
  H    -20.740757   25.358834   45.659340
  H    -19.150615   27.250754   45.814463
  H    -20.575033   28.069778   45.146561
  H    -19.553087   29.000018   47.499348
  H    -21.311824   28.798295   47.360015
  H    -21.086374   27.259214   49.170299
  H    -19.350517   26.996262   48.844837
  C    -23.137959   26.821147   45.050727
  H    -24.160733   26.463475   45.199998
  H    -23.180408   27.915026   44.967205
  O    -22.435264   26.458226   46.286603
  C    -22.577831   26.293705   43.715267
  C    -22.631421   24.761229   43.557467
  C    -24.139769   24.525258   43.218851
  C    -24.494691   25.769359   42.377031
  O    -23.442878   26.787192   42.647109
  H    -21.581734   26.696862   43.517086
  H    -22.002984   24.456267   42.717526
  O    -22.160338   23.975431   44.674762
  H    -24.290743   23.587716   42.678094
  H    -24.719185   24.476760   44.147674
  H    -25.470066   26.197271   42.628247
  H    -24.465506   25.567441   41.302263
  H    -22.595743   24.267090   45.506170

 Multiplicity           Mult            ....    1
 Number of Electrons    NEL             ....  102
 Basis Dimension        Dim             ....  149

ORBITAL ENERGIES
----------------

  NO   OCC          E(Eh)            E(eV)
   0   2.0000     -19.149459      -521.0833
   1   2.0000     -19.146060      -520.9908
   2   2.0000     -19.144278      -520.9423
   3   2.0000     -19.139923      -520.8238
   4   2.0000     -10.274895      -279.5941
   5   2.0000     -10.246693      -278.8267
   6   2.0000     -10.242506      -278.7128
   7   2.0000     -10.235831      -278.5311
   8   2.0000     -10.234413      -278.4925
   9   2.0000     -10.224074      -278.2112
  10   2.0000     -10.193856      -277.3889
  11   2.0000     -10.187451      -277.2146
  12   2.0000     -10.186411      -277.1863
  13   2.0000      -1.052055       -28.6279
  14   2.0000      -1.036951       -28.2169
  15   2.0000      -1.019415       -27.7397
  16   2.0000      -0.990304       -26.9475
  17   2.0000      -0.785812       -21.3830
  18   2.0000      -0.782660       -21.2973
  19   2.0000      -0.769431       -20.9373
  20   2.0000      -0.735866       -20.0239
  21   2.0000      -0.682847       -18.5812
  22   2.0000      -0.611704       -16.6453
  23   2.0000      -0.609101       -16.5745
  24   2.0000      -0.599363       -16.3095
  25   2.0000      -0.566422       -15.4131
  26   2.0000      -0.535858       -14.5814
  27   2.0000      -0.515575       -14.0295
  28   2.0000      -0.498923       -13.5764
  29   2.0000      -0.487274       -13.2594
  30   2.0000      -0.469269       -12.7695
  31   2.0000      -0.459381       -12.5004
  32   2.0000      -0.447775       -12.1846
  33   2.0000      -0.436033       -11.8650
  34   2.0000      -0.429399       -11.6845
  35   2.0000      -0.416894       -11.3443
  36   2.0000      -0.411064       -11.1856
  37   2.0000      -0.401643       -10.9293
  38   2.0000      -0.380700       -10.3594
  39   2.0000      -0.374537       -10.1917
  40   2.0000      -0.362646        -9.8681
  41   2.0000      -0.358869        -9.7653
  42   2.0000      -0.353880        -9.6296
  43   2.0000      -0.340891        -9.2761
  44   2.0000      -0.317794        -8.6476
  45   2.0000      -0.314259        -8.5514
  46   2.0000      -0.306176        -8.3315
  47   2.0000      -0.267987        -7.2923
  48   2.0000      -0.259521        -7.0619
  49   2.0000      -0.257204        -6.9989
  50   2.0000      -0.247036        -6.7222
  51   0.0000       0.056262         1.5310
  52   0.0000       0.069638         1.8949
  53   0.0000       0.084034         2.2867
  54   0.0000       0.096330         2.6213
  55   0.0000       0.107047         2.9129

MULLIKEN ATOMIC CHARGES
-----------------------
   0 C :    0.268411
   1 C :   -0.282466
   2 C :   -0.296887
   3 C :   -0.001648
   4 O :   -0.504032
   5 H :    0.181773
   6 H :    0.150408
   7 H :    0.143989
   8 H :    0.142198
   9 H :    0.159117
  10 H :    0.153857
  11 H :    0.143343
  12 C :   -0.027190
  13 H :    0.150451
  14 H :    0.155128
  15 O :   -0.535859
  16 C :    0.046453
  17 C :    0.102604
  18 C :   -0.312402
  19 C :   -0.019742
  20 O :   -0.519806
  21 H :    0.155993
  22 H :    0.164069
  23 O :   -0.604044
  24 H :    0.157390
  25 H :    0.145971
  26 H :    0.145646
  27 H :    0.155899
  28 H :    0.381378
Sum of atomic charges:    0.0000000

LOEWDIN ATOMIC CHARGES
----------------------
   0 C :    0.163494
   1 C :   -0.231766
   2 C :   -0.215949
   3 C :   -0.025307
   4 O :   -0.300675
   5 H :    0.113404
   6 H :    0.117049
   7 H :    0.113189
   8 H :    0.114398
   9 H :    0.117169
  10 H :    0.109234
  11 H :    0.103212
  12 C :   -0.057291
  13 H :    0.110285
  14 H :    0.107106
  15 O :   -0.348609
  16 C :    0.003360
  17 C :    0.035002
  18 C :   -0.238278
  19 C :   -0.031780
  20 O :   -0.319011
  21 H :    0.111378
  22 H :    0.117039
  23 O :   -0.403244
  24 H :    0.124240
  25 H :    0.110780
  26 H :    0.103771
  27 H :    0.108816
  28 H :    0.288982

  Mayer bond orders larger than 0.100000
B(  0-C ,  1-C ) :   0.9304 B(  0-C ,  4-O ) :   0.9321 B(  0-C ,  5-H ) :   0.8874
B(  0-C , 15-O ) :   0.7974 B(  1-C ,  2-C ) :   0.9486 B(  1-C ,  6-H ) :   0.9352
B(  1-C ,  7-H ) :   0.9316 B(  2-C ,  3-C ) :   0.9559 B(  2-C ,  8-H ) :   0.9450
B(  2-C ,  9-H ) :   0.9454 B(  3-C ,  4-O ) :   0.8334 B(  3-C , 10-H ) :   0.9351
B(  3-C , 11-H ) :   0.9398 B( 12-C , 13-H ) :   0.9336 B( 12-C , 14-H ) :   0.9201
B( 12-C , 15-O ) :   0.8326 B( 12-C , 16-C ) :   0.8881 B( 16-C , 17-C ) :   0.8867
B( 16-C , 20-O ) :   0.8399 B( 16-C , 21-H ) :   0.9256 B( 17-C , 18-C ) :   0.9133
B( 17-C , 22-H ) :   0.9336 B( 17-C , 23-O ) :   0.9071 B( 18-C , 19-C ) :   0.9388
B( 18-C , 24-H ) :   0.9431 B( 18-C , 25-H ) :   0.9420 B( 19-C , 20-O ) :   0.8325
B( 19-C , 26-H ) :   0.9333 B( 19-C , 27-H ) :   0.9374 B( 23-O , 28-H ) :   0.7636

FINAL SINGLE POINT ENERGY      -652.855895558251

DIPOLE MOMENT
-------------
                                X             Y             Z
Electronic contribution:     -0.00622      -2.76728       0.20766
Nuclear contribution   :     -0.25110       3.40227      -0.61903
                        -----------------------------------------
Total Dipole Moment    :     -0.25731       0.63499      -0.41137
                        -----------------------------------------
Magnitude (a.u.)       :      0.79916
Magnitude (Debye)      :      2.03129

Rotational constants in cm-1:     0.061900     0.014299     0.012917
Rotational constants in MHz :  1855.725107   428.660054   387.241077

                             ****ORCA TERMINATED NORMALLY****
TOTAL RUN TIME: 0 days 0 hours 42 minutes 50 seconds 351 msec
