                         Program Version 4.2.0 -  RELEASE  -
|  1> # Test redundant internal optimization
|  2> #
|  3> ! RKS B3LYP  Opt TightSCF SmallPrint
|  4>
|  5> %basis
|  6>         Basis "6-31G"
|  7> end
|  8>
|  9> %geom
| 10> Constraints
| 11> { D 4  0  15  12  210.0   C } # D for Dihedral angle
| 12> { D 0  15  12  16  15.0   C } # D for Dihedral angle
| 13> { D 0  4  3  2   C } # D for Dihedral angle
| 14> { D 4  3  2  1   C } # D for Dihedral angle
| 15> { D 3  2  1  0   C } # D for Dihedral angle
| 16> { D 2  1  0  4   C } # D for Dihedral angle
| 17> { D 1  0  4  3   C } # D for Dihedral angle
| 18> { D 16  20  19  18   C } # D for Dihedral angle
| 19> { D 20  19  18  17   C } # D for Dihedral angle
| 20> { D 19  18  17  16   C } # D for Dihedral angle
| 21> { D 18  17  16  20   C } # D for Dihedral angle
| 22> { D 17  16  20  19   C } # D for Dihedral angle
| 23> { D 15  12  16  20   C } # D for Dihedral angle
| 24> end
| 25> end
| 26>
| 27>
| 28> #%pal
| 29> #nprocs 8
| 30> #end
| 31>
| 32> * xyz 0 1
| 33> C  -21.048   26.222   46.251
| 34> C  -20.361   27.558   45.944
| 35> C  -20.329   28.222   47.341
| 36> C  -20.110   27.022   48.296
| 37> O  -20.473   25.807   47.535
| 38> H  -20.833   25.428   45.533
| 39> H  -19.344   27.382   45.576
| 40> H  -20.898   28.157   45.201
| 41> H  -19.543   28.978   47.434
| 42> H  -21.289   28.710   47.548
| 43> H  -20.733   27.082   49.195
| 44> H  -19.064   26.913   48.597
| 45> C  -23.389   26.110   45.076
| 46> H  -24.268   25.500   45.320
| 47> H  -23.737   27.049   44.627
| 48> O  -22.586   26.394   46.375
| 49> C  -22.553   25.356   44.005
| 50> C  -22.166   23.954   44.488
| 51> C  -23.474   23.165   44.244
| 52> C  -24.037   23.810   42.953
| 53> O  -23.358   25.115   42.803
| 54> H  -21.709   25.980   43.706
| 55> H  -21.353   23.555   43.871
| 56> O  -21.711   23.923   45.974
| 57> H  -23.307   22.089   44.135
| 58> H  -24.165   23.314   45.083
| 59> H  -25.119   23.973   43.003
| 60> H  -23.809   23.223   42.059
| 61> H  -22.510   24.319   46.610
| 62> *
| 63>
| 64>                          ****END OF INPUT****
 Total Charge           Charge          ....    0
 Multiplicity           Mult            ....    1
 Number of Electrons    NEL             ....  102
FINAL SINGLE POINT ENERGY      -652.806271118454
FINAL SINGLE POINT ENERGY      -652.837780413284
FINAL SINGLE POINT ENERGY      -652.849802938807
FINAL SINGLE POINT ENERGY      -652.851383421995
FINAL SINGLE POINT ENERGY      -652.851750400662
FINAL SINGLE POINT ENERGY      -652.851796263250
FINAL SINGLE POINT ENERGY      -652.851802763265
                    ***********************HURRAY********************

CARTESIAN COORDINATES (ANGSTROEM)
---------------------------------
  C    -20.866568   26.250815   46.311730
  C    -20.178329   27.591031   46.056216
  C    -20.450672   28.349558   47.379029
  C    -20.390458   27.226220   48.435630
  O    -20.555943   25.955939   47.683079
  H    -20.521973   25.411850   45.712768
  H    -19.103110   27.427978   45.912000
  H    -20.573716   28.108315   45.177385
  H    -19.720387   29.141692   47.569417
  H    -21.448986   28.794776   47.348074
  H    -21.185321   27.294864   49.183257
  H    -19.421059   27.166143   48.940037
  C    -23.110941   26.096559   45.046119
  H    -24.009712   25.598469   45.425265
  H    -23.432691   27.040527   44.589593
  O    -22.319047   26.410011   46.234162
  C    -22.513525   25.252540   43.898686
  C    -22.173490   23.783808   44.231609
  C    -23.592188   23.115793   44.249631
  C    -24.332853   23.892693   43.139111
  O    -23.571532   25.143973   42.897607
  H    -21.678213   25.771096   43.420387
  H    -21.578851   23.368122   43.414170
  O    -21.391940   23.510525   45.412832
  H    -23.534902   22.042019   44.056425
  H    -24.055138   23.263488   45.232909
  H    -25.361027   24.154124   43.407792
  H    -24.346868   23.346131   42.191134
  H    -21.856561   23.800940   46.226944

 Multiplicity           Mult            ....    1
 Number of Electrons    NEL             ....  102
 Basis Dimension        Dim             ....  149

ORBITAL ENERGIES
----------------

  NO   OCC          E(Eh)            E(eV)
   0   2.0000     -19.150545      -521.1128
   1   2.0000     -19.149222      -521.0768
   2   2.0000     -19.136130      -520.7206
   3   2.0000     -19.136006      -520.7172
   4   2.0000     -10.270060      -279.4625
   5   2.0000     -10.248910      -278.8870
   6   2.0000     -10.242425      -278.7106
   7   2.0000     -10.236155      -278.5399
   8   2.0000     -10.231468      -278.4124
   9   2.0000     -10.221083      -278.1298
  10   2.0000     -10.196110      -277.4502
  11   2.0000     -10.181178      -277.0439
  12   2.0000     -10.180700      -277.0309
  13   2.0000      -1.048021       -28.5181
  14   2.0000      -1.037705       -28.2374
  15   2.0000      -1.022879       -27.8340
  16   2.0000      -0.985822       -26.8256
  17   2.0000      -0.783397       -21.3173
  18   2.0000      -0.780837       -21.2477
  19   2.0000      -0.768000       -20.8983
  20   2.0000      -0.732197       -19.9241
  21   2.0000      -0.680633       -18.5210
  22   2.0000      -0.614049       -16.7091
  23   2.0000      -0.607850       -16.5404
  24   2.0000      -0.594303       -16.1718
  25   2.0000      -0.562957       -15.3188
  26   2.0000      -0.533702       -14.5228
  27   2.0000      -0.518187       -14.1006
  28   2.0000      -0.497684       -13.5427
  29   2.0000      -0.481667       -13.1068
  30   2.0000      -0.464484       -12.6393
  31   2.0000      -0.457356       -12.4453
  32   2.0000      -0.446994       -12.1633
  33   2.0000      -0.435912       -11.8618
  34   2.0000      -0.426551       -11.6071
  35   2.0000      -0.415943       -11.3184
  36   2.0000      -0.412499       -11.2247
  37   2.0000      -0.397150       -10.8070
  38   2.0000      -0.380077       -10.3424
  39   2.0000      -0.370482       -10.0813
  40   2.0000      -0.361874        -9.8471
  41   2.0000      -0.353808        -9.6276
  42   2.0000      -0.349596        -9.5130
  43   2.0000      -0.337067        -9.1721
  44   2.0000      -0.319194        -8.6857
  45   2.0000      -0.309991        -8.4353
  46   2.0000      -0.307072        -8.3559
  47   2.0000      -0.267338        -7.2746
  48   2.0000      -0.257943        -7.0190
  49   2.0000      -0.251802        -6.8519
  50   2.0000      -0.242166        -6.5897
  51   0.0000       0.054806         1.4914
  52   0.0000       0.071833         1.9547
  53   0.0000       0.088605         2.4111
  54   0.0000       0.098856         2.6900
  55   0.0000       0.100564         2.7365

MULLIKEN ATOMIC CHARGES
-----------------------
   0 C :    0.248156
   1 C :   -0.259277
   2 C :   -0.297693
   3 C :   -0.000985
   4 O :   -0.510691
   5 H :    0.188099
   6 H :    0.144538
   7 H :    0.139139
   8 H :    0.138859
   9 H :    0.161723
  10 H :    0.150630
  11 H :    0.141572
  12 C :    0.001187
  13 H :    0.141540
  14 H :    0.154486
  15 O :   -0.542871
  16 C :    0.036932
  17 C :    0.104356
  18 C :   -0.323275
  19 C :   -0.018401
  20 O :   -0.516874
  21 H :    0.155705
  22 H :    0.165522
  23 O :   -0.596914
  24 H :    0.163657
  25 H :    0.145587
  26 H :    0.149947
  27 H :    0.153113
  28 H :    0.382231
Sum of atomic charges:    0.0000000

LOEWDIN ATOMIC CHARGES
----------------------
   0 C :    0.158803
   1 C :   -0.226569
   2 C :   -0.216493
   3 C :   -0.025913
   4 O :   -0.311463
   5 H :    0.115896
   6 H :    0.112817
   7 H :    0.113304
   8 H :    0.112675
   9 H :    0.118915
  10 H :    0.107264
  11 H :    0.101878
  12 C :   -0.048139
  13 H :    0.104092
  14 H :    0.109001
  15 O :   -0.349798
  16 C :    0.004111
  17 C :    0.033485
  18 C :   -0.240721
  19 C :   -0.031868
  20 O :   -0.316114
  21 H :    0.112197
  22 H :    0.117888
  23 O :   -0.396864
  24 H :    0.126080
  25 H :    0.110123
  26 H :    0.105135
  27 H :    0.107676
  28 H :    0.292599

  Mayer bond orders larger than 0.100000
B(  0-C ,  1-C ) :   0.9320 B(  0-C ,  4-O ) :   0.9221 B(  0-C ,  5-H ) :   0.8824
B(  0-C , 15-O ) :   0.8115 B(  1-C ,  2-C ) :   0.9534 B(  1-C ,  6-H ) :   0.9355
B(  1-C ,  7-H ) :   0.9401 B(  2-C ,  3-C ) :   0.9553 B(  2-C ,  8-H ) :   0.9455
B(  2-C ,  9-H ) :   0.9438 B(  3-C ,  4-O ) :   0.8350 B(  3-C , 10-H ) :   0.9355
B(  3-C , 11-H ) :   0.9399 B( 12-C , 13-H ) :   0.9324 B( 12-C , 14-H ) :   0.9215
B( 12-C , 15-O ) :   0.8398 B( 12-C , 16-C ) :   0.8915 B( 16-C , 17-C ) :   0.8801
B( 16-C , 20-O ) :   0.8361 B( 16-C , 21-H ) :   0.9287 B( 17-C , 18-C ) :   0.9187
B( 17-C , 22-H ) :   0.9319 B( 17-C , 23-O ) :   0.9061 B( 18-C , 19-C ) :   0.9388
B( 18-C , 24-H ) :   0.9409 B( 18-C , 25-H ) :   0.9408 B( 19-C , 20-O ) :   0.8303
B( 19-C , 26-H ) :   0.9324 B( 19-C , 27-H ) :   0.9381 B( 23-O , 28-H ) :   0.7738

FINAL SINGLE POINT ENERGY      -652.851803631781

DIPOLE MOMENT
-------------
                                X             Y             Z
Electronic contribution:      0.11581      -2.27288      -0.50674
Nuclear contribution   :     -0.43348       2.45903       0.27010
                        -----------------------------------------
Total Dipole Moment    :     -0.31766       0.18616      -0.23664
                        -----------------------------------------
Magnitude (a.u.)       :      0.43768
Magnitude (Debye)      :      1.11250

Rotational constants in cm-1:     0.062375     0.013954     0.012687
Rotational constants in MHz :  1869.957078   418.320713   380.359914

                             ****ORCA TERMINATED NORMALLY****
TOTAL RUN TIME: 0 days 1 hours 9 minutes 19 seconds 154 msec
