                         Program Version 4.2.0 -  RELEASE  -
|  1> # Test redundant internal optimization
|  2> #
|  3> ! RKS B3LYP  Opt TightSCF SmallPrint
|  4>
|  5> %basis
|  6>         Basis "6-31G"
|  7> end
|  8>
|  9> %geom
| 10> Constraints
| 11> { D 4  0  15  12  135.0   C } # D for Dihedral angle
| 12> { D 0  15  12  16  195.0   C } # D for Dihedral angle
| 13> { D 0  4  3  2   C } # D for Dihedral angle
| 14> { D 4  3  2  1   C } # D for Dihedral angle
| 15> { D 3  2  1  0   C } # D for Dihedral angle
| 16> { D 2  1  0  4   C } # D for Dihedral angle
| 17> { D 1  0  4  3   C } # D for Dihedral angle
| 18> { D 16  20  19  18   C } # D for Dihedral angle
| 19> { D 20  19  18  17   C } # D for Dihedral angle
| 20> { D 19  18  17  16   C } # D for Dihedral angle
| 21> { D 18  17  16  20   C } # D for Dihedral angle
| 22> { D 17  16  20  19   C } # D for Dihedral angle
| 23> { D 15  12  16  20   C } # D for Dihedral angle
| 24> end
| 25> end
| 26>
| 27>
| 28> #%pal
| 29> #nprocs 8
| 30> #end
| 31>
| 32> * xyz 0 1
| 33> C  -21.048   26.222   46.251
| 34> C  -20.361   27.558   45.944
| 35> C  -20.329   28.222   47.341
| 36> C  -20.110   27.022   48.296
| 37> O  -20.473   25.807   47.535
| 38> H  -20.833   25.428   45.533
| 39> H  -19.344   27.382   45.576
| 40> H  -20.898   28.157   45.201
| 41> H  -19.543   28.978   47.434
| 42> H  -21.289   28.710   47.548
| 43> H  -20.733   27.082   49.195
| 44> H  -19.064   26.913   48.597
| 45> C  -23.162   27.680   45.721
| 46> H  -22.525   28.535   45.981
| 47> H  -23.173   27.582   44.627
| 48> O  -22.586   26.394   46.375
| 49> C  -24.612   27.991   46.183
| 50> C  -25.189   29.197   45.432
| 51> C  -25.591   28.561   44.080
| 52> C  -26.061   27.142   44.485
| 53> O  -25.510   26.885   45.833
| 54> H  -24.628   28.086   47.271
| 55> H  -26.071   29.581   45.957
| 56> O  -24.171   30.359   45.271
| 57> H  -26.372   29.127   43.561
| 58> H  -24.721   28.505   43.416
| 59> H  -25.700   26.368   43.798
| 60> H  -27.150   27.068   44.562
| 61> H  -23.279   29.999   44.747
| 62> *
| 63>
| 64>                          ****END OF INPUT****
 Total Charge           Charge          ....    0
 Multiplicity           Mult            ....    1
 Number of Electrons    NEL             ....  102
FINAL SINGLE POINT ENERGY      -652.814901871048
FINAL SINGLE POINT ENERGY      -652.839266561536
FINAL SINGLE POINT ENERGY      -652.844409034593
FINAL SINGLE POINT ENERGY      -652.846695517031
FINAL SINGLE POINT ENERGY      -652.846994415261
FINAL SINGLE POINT ENERGY      -652.847093729862
FINAL SINGLE POINT ENERGY      -652.847114270522
FINAL SINGLE POINT ENERGY      -652.847123905131
FINAL SINGLE POINT ENERGY      -652.847126684546
                    ***********************HURRAY********************

CARTESIAN COORDINATES (ANGSTROEM)
---------------------------------
  C    -21.100760   26.290915   46.264402
  C    -20.164202   27.468678   45.983840
  C    -20.148726   28.204753   47.351486
  C    -20.238953   27.036887   48.360008
  O    -20.737872   25.872611   47.591924
  H    -20.943722   25.422404   45.620606
  H    -19.170872   27.067671   45.755221
  H    -20.468860   28.103783   45.148246
  H    -19.244800   28.805654   47.489582
  H    -21.013073   28.870662   47.444370
  H    -20.925865   27.236231   49.186688
  H    -19.262374   26.753101   48.763093
  C    -23.055438   27.767403   45.599761
  H    -22.502284   28.672691   45.880315
  H    -23.013117   27.660486   44.503796
  O    -22.529512   26.580532   46.239733
  C    -24.494474   27.940457   46.083447
  C    -25.215344   29.150177   45.464465
  C    -25.721942   28.564125   44.112228
  C    -26.063583   27.104249   44.483280
  O    -25.358546   26.812616   45.756441
  H    -24.470432   27.985948   47.176019
  H    -26.058487   29.432051   46.099163
  O    -24.418954   30.356494   45.349568
  H    -26.578437   29.116265   43.716286
  H    -24.915124   28.610110   43.367500
  H    -25.742641   26.384293   43.723785
  H    -27.132835   26.964711   44.670212
  H    -23.834772   30.305040   44.565534

 Multiplicity           Mult            ....    1
 Number of Electrons    NEL             ....  102
 Basis Dimension        Dim             ....  149

ORBITAL ENERGIES
----------------

  NO   OCC          E(Eh)            E(eV)
   0   2.0000     -19.152874      -521.1762
   1   2.0000     -19.136119      -520.7203
   2   2.0000     -19.134847      -520.6856
   3   2.0000     -19.134804      -520.6845
   4   2.0000     -10.277240      -279.6579
   5   2.0000     -10.246681      -278.8264
   6   2.0000     -10.232609      -278.4434
   7   2.0000     -10.229959      -278.3713
   8   2.0000     -10.229814      -278.3674
   9   2.0000     -10.224764      -278.2300
  10   2.0000     -10.197872      -277.4982
  11   2.0000     -10.193464      -277.3783
  12   2.0000     -10.192309      -277.3468
  13   2.0000      -1.048562       -28.5328
  14   2.0000      -1.035031       -28.1646
  15   2.0000      -1.015616       -27.6363
  16   2.0000      -0.989778       -26.9332
  17   2.0000      -0.789312       -21.4783
  18   2.0000      -0.783926       -21.3317
  19   2.0000      -0.770284       -20.9605
  20   2.0000      -0.731784       -19.9129
  21   2.0000      -0.684085       -18.6149
  22   2.0000      -0.613010       -16.6809
  23   2.0000      -0.604640       -16.4531
  24   2.0000      -0.592100       -16.1119
  25   2.0000      -0.571352       -15.5473
  26   2.0000      -0.526355       -14.3229
  27   2.0000      -0.513647       -13.9770
  28   2.0000      -0.500869       -13.6293
  29   2.0000      -0.498055       -13.5528
  30   2.0000      -0.467742       -12.7279
  31   2.0000      -0.459650       -12.5077
  32   2.0000      -0.445484       -12.1222
  33   2.0000      -0.435737       -11.8570
  34   2.0000      -0.430728       -11.7207
  35   2.0000      -0.416829       -11.3425
  36   2.0000      -0.412498       -11.2246
  37   2.0000      -0.397564       -10.8183
  38   2.0000      -0.380596       -10.3565
  39   2.0000      -0.377437       -10.2706
  40   2.0000      -0.363514        -9.8917
  41   2.0000      -0.356707        -9.7065
  42   2.0000      -0.351351        -9.5608
  43   2.0000      -0.330890        -9.0040
  44   2.0000      -0.317426        -8.6376
  45   2.0000      -0.310353        -8.4451
  46   2.0000      -0.289862        -7.8876
  47   2.0000      -0.272707        -7.4207
  48   2.0000      -0.263136        -7.1603
  49   2.0000      -0.245783        -6.6881
  50   2.0000      -0.239539        -6.5182
  51   0.0000       0.045870         1.2482
  52   0.0000       0.072860         1.9826
  53   0.0000       0.085736         2.3330
  54   0.0000       0.090850         2.4722
  55   0.0000       0.103182         2.8077

MULLIKEN ATOMIC CHARGES
-----------------------
   0 C :    0.320336
   1 C :   -0.301277
   2 C :   -0.307065
   3 C :   -0.000970
   4 O :   -0.493766
   5 H :    0.153372
   6 H :    0.154493
   7 H :    0.139970
   8 H :    0.145297
   9 H :    0.157141
  10 H :    0.152679
  11 H :    0.143453
  12 C :   -0.013337
  13 H :    0.128574
  14 H :    0.114493
  15 O :   -0.513066
  16 C :    0.097927
  17 C :    0.077306
  18 C :   -0.329762
  19 C :   -0.012163
  20 O :   -0.497757
  21 H :    0.167900
  22 H :    0.171525
  23 O :   -0.599384
  24 H :    0.158702
  25 H :    0.132945
  26 H :    0.147790
  27 H :    0.151020
  28 H :    0.353624
Sum of atomic charges:   -0.0000000

LOEWDIN ATOMIC CHARGES
----------------------
   0 C :    0.183769
   1 C :   -0.233758
   2 C :   -0.219749
   3 C :   -0.028132
   4 O :   -0.307025
   5 H :    0.103611
   6 H :    0.121523
   7 H :    0.111962
   8 H :    0.115955
   9 H :    0.112030
  10 H :    0.108059
  11 H :    0.103301
  12 C :   -0.050627
  13 H :    0.094813
  14 H :    0.083038
  15 O :   -0.320407
  16 C :    0.023013
  17 C :    0.033129
  18 C :   -0.243241
  19 C :   -0.030476
  20 O :   -0.307662
  21 H :    0.121782
  22 H :    0.120659
  23 O :   -0.408618
  24 H :    0.122683
  25 H :    0.102871
  26 H :    0.104589
  27 H :    0.106434
  28 H :    0.276473

  Mayer bond orders larger than 0.100000
B(  0-C ,  1-C ) :   0.9297 B(  0-C ,  4-O ) :   0.9252 B(  0-C ,  5-H ) :   0.9280
B(  0-C , 15-O ) :   0.8575 B(  1-C ,  2-C ) :   0.9501 B(  1-C ,  6-H ) :   0.9343
B(  1-C ,  7-H ) :   0.9299 B(  2-C ,  3-C ) :   0.9504 B(  2-C ,  8-H ) :   0.9456
B(  2-C ,  9-H ) :   0.9395 B(  3-C ,  4-O ) :   0.8433 B(  3-C , 10-H ) :   0.9339
B(  3-C , 11-H ) :   0.9394 B( 12-C , 13-H ) :   0.8863 B( 12-C , 14-H ) :   0.9169
B( 12-C , 15-O ) :   0.8551 B( 12-C , 16-C ) :   0.9014 B( 16-C , 17-C ) :   0.8722
B( 16-C , 20-O ) :   0.8782 B( 16-C , 21-H ) :   0.9274 B( 17-C , 18-C ) :   0.9275
B( 17-C , 22-H ) :   0.9323 B( 17-C , 23-O ) :   0.8902 B( 18-C , 19-C ) :   0.9382
B( 18-C , 24-H ) :   0.9411 B( 18-C , 25-H ) :   0.9402 B( 19-C , 20-O ) :   0.8534
B( 19-C , 26-H ) :   0.9307 B( 19-C , 27-H ) :   0.9373 B( 23-O , 28-H ) :   0.8004

FINAL SINGLE POINT ENERGY      -652.847127587981

DIPOLE MOMENT
-------------
                                X             Y             Z
Electronic contribution:     -2.31610      -3.62916       2.08093
Nuclear contribution   :      2.89126       4.86605      -3.37928
                        -----------------------------------------
Total Dipole Moment    :      0.57516       1.23689      -1.29835
                        -----------------------------------------
Magnitude (a.u.)       :      1.88319
Magnitude (Debye)      :      4.78670

Rotational constants in cm-1:     0.053072     0.013349     0.011915
Rotational constants in MHz :  1591.071186   400.180756   357.188631

                             ****ORCA TERMINATED NORMALLY****
TOTAL RUN TIME: 0 days 0 hours 31 minutes 23 seconds 299 msec
