                         Program Version 4.2.0 -  RELEASE  -
|  1> # Test redundant internal optimization
|  2> #
|  3> ! RKS B3LYP  Opt TightSCF SmallPrint
|  4>
|  5> %basis
|  6>         Basis "6-31G"
|  7> end
|  8>
|  9> %geom
| 10> Constraints
| 11> { D 4  0  15  12  210.0   C } # D for Dihedral angle
| 12> { D 0  15  12  16  60.0   C } # D for Dihedral angle
| 13> { D 0  4  3  2   C } # D for Dihedral angle
| 14> { D 4  3  2  1   C } # D for Dihedral angle
| 15> { D 3  2  1  0   C } # D for Dihedral angle
| 16> { D 2  1  0  4   C } # D for Dihedral angle
| 17> { D 1  0  4  3   C } # D for Dihedral angle
| 18> { D 16  20  19  18   C } # D for Dihedral angle
| 19> { D 20  19  18  17   C } # D for Dihedral angle
| 20> { D 19  18  17  16   C } # D for Dihedral angle
| 21> { D 18  17  16  20   C } # D for Dihedral angle
| 22> { D 17  16  20  19   C } # D for Dihedral angle
| 23> { D 15  12  16  20   C } # D for Dihedral angle
| 24> end
| 25> end
| 26>
| 27>
| 28> #%pal
| 29> #nprocs 8
| 30> #end
| 31>
| 32> * xyz 0 1
| 33> C  -21.048   26.222   46.251
| 34> C  -20.361   27.558   45.944
| 35> C  -20.329   28.222   47.341
| 36> C  -20.110   27.022   48.296
| 37> O  -20.473   25.807   47.535
| 38> H  -20.833   25.428   45.533
| 39> H  -19.344   27.382   45.576
| 40> H  -20.898   28.157   45.201
| 41> H  -19.543   28.978   47.434
| 42> H  -21.289   28.710   47.548
| 43> H  -20.733   27.082   49.195
| 44> H  -19.064   26.913   48.597
| 45> C  -23.389   26.110   45.076
| 46> H  -24.457   26.268   45.269
| 47> H  -23.080   26.796   44.276
| 48> O  -22.586   26.394   46.375
| 49> C  -23.196   24.659   44.556
| 50> C  -23.908   24.449   43.215
| 51> C  -22.912   25.101   42.226
| 52> C  -21.532   24.768   42.847
| 53> O  -21.783   24.405   44.258
| 54> H  -23.490   23.956   45.338
| 55> O  -24.058   22.931   42.922
| 56> H  -24.902   24.908   43.179
| 57> H  -23.014   24.717   41.206
| 58> H  -23.069   26.185   42.193
| 59> H  -20.841   25.617   42.812
| 60> H  -21.057   23.905   42.371
| 61> H  -23.073   22.452   42.952
| 62> *
| 63>
| 64>                          ****END OF INPUT****
 Total Charge           Charge          ....    0
 Multiplicity           Mult            ....    1
 Number of Electrons    NEL             ....  102
FINAL SINGLE POINT ENERGY      -652.829817726044
FINAL SINGLE POINT ENERGY      -652.852592392342
FINAL SINGLE POINT ENERGY      -652.856221619065
FINAL SINGLE POINT ENERGY      -652.858885366775
FINAL SINGLE POINT ENERGY      -652.859150129749
FINAL SINGLE POINT ENERGY      -652.859204111821
                    ***********************HURRAY********************

CARTESIAN COORDINATES (ANGSTROEM)
---------------------------------
  C    -20.898670   26.234135   46.225605
  C    -20.284395   27.617343   46.018140
  C    -20.451144   28.256001   47.418424
  C    -20.250058   27.056000   48.368424
  O    -20.445666   25.844072   47.532080
  H    -20.605902   25.456339   45.525090
  H    -19.224042   27.511444   45.758399
  H    -20.780194   28.188397   45.227149
  H    -19.734409   29.061670   47.603559
  H    -21.463037   28.659149   47.518240
  H    -20.968609   27.033949   49.191923
  H    -19.234277   26.998280   48.771802
  C    -23.164503   26.084129   45.105220
  H    -24.194504   26.232576   45.445247
  H    -22.953424   26.840273   44.329757
  O    -22.360434   26.346466   46.281007
  C    -23.049613   24.679113   44.500406
  C    -23.910666   24.478973   43.242754
  C    -22.984312   25.048371   42.134147
  C    -21.567317   24.648790   42.620174
  O    -21.689740   24.333760   44.066476
  H    -23.307149   23.946000   45.271477
  O    -24.211488   23.074147   43.029441
  H    -24.880545   24.975987   43.289217
  H    -23.237645   24.619865   41.161730
  H    -23.090832   26.136889   42.070950
  H    -20.833282   25.450349   42.491439
  H    -21.190567   23.748182   42.126700
  H    -23.405575   22.541350   43.197022

 Multiplicity           Mult            ....    1
 Number of Electrons    NEL             ....  102
 Basis Dimension        Dim             ....  149

ORBITAL ENERGIES
----------------

  NO   OCC          E(Eh)            E(eV)
   0   2.0000     -19.155211      -521.2398
   1   2.0000     -19.144410      -520.9459
   2   2.0000     -19.132308      -520.6166
   3   2.0000     -19.129276      -520.5341
   4   2.0000     -10.262181      -279.2481
   5   2.0000     -10.250267      -278.9239
   6   2.0000     -10.240876      -278.6684
   7   2.0000     -10.239954      -278.6433
   8   2.0000     -10.236138      -278.5395
   9   2.0000     -10.216005      -277.9916
  10   2.0000     -10.197798      -277.4962
  11   2.0000     -10.178495      -276.9709
  12   2.0000     -10.178366      -276.9674
  13   2.0000      -1.048286       -28.5253
  14   2.0000      -1.038435       -28.2573
  15   2.0000      -1.014258       -27.5994
  16   2.0000      -0.984143       -26.7799
  17   2.0000      -0.792325       -21.5603
  18   2.0000      -0.778758       -21.1911
  19   2.0000      -0.769868       -20.9492
  20   2.0000      -0.727475       -19.7956
  21   2.0000      -0.676329       -18.4039
  22   2.0000      -0.612367       -16.6634
  23   2.0000      -0.603207       -16.4141
  24   2.0000      -0.589747       -16.0478
  25   2.0000      -0.572085       -15.5672
  26   2.0000      -0.532214       -14.4823
  27   2.0000      -0.507443       -13.8082
  28   2.0000      -0.497078       -13.5262
  29   2.0000      -0.485535       -13.2121
  30   2.0000      -0.477031       -12.9807
  31   2.0000      -0.457973       -12.4621
  32   2.0000      -0.446403       -12.1472
  33   2.0000      -0.443318       -12.0633
  34   2.0000      -0.428063       -11.6482
  35   2.0000      -0.408239       -11.1087
  36   2.0000      -0.402586       -10.9549
  37   2.0000      -0.394187       -10.7264
  38   2.0000      -0.381294       -10.3755
  39   2.0000      -0.370024       -10.0689
  40   2.0000      -0.365721        -9.9518
  41   2.0000      -0.349175        -9.5015
  42   2.0000      -0.346292        -9.4231
  43   2.0000      -0.335625        -9.1328
  44   2.0000      -0.321513        -8.7488
  45   2.0000      -0.302759        -8.2385
  46   2.0000      -0.299318        -8.1449
  47   2.0000      -0.279305        -7.6003
  48   2.0000      -0.265870        -7.2347
  49   2.0000      -0.250822        -6.8252
  50   2.0000      -0.231656        -6.3037
  51   0.0000       0.056775         1.5449
  52   0.0000       0.080085         2.1792
  53   0.0000       0.087204         2.3730
  54   0.0000       0.094468         2.5706
  55   0.0000       0.102322         2.7843

MULLIKEN ATOMIC CHARGES
-----------------------
   0 C :    0.261579
   1 C :   -0.261583
   2 C :   -0.296648
   3 C :   -0.000449
   4 O :   -0.501550
   5 H :    0.197610
   6 H :    0.140811
   7 H :    0.133651
   8 H :    0.136248
   9 H :    0.158756
  10 H :    0.150179
  11 H :    0.137418
  12 C :   -0.003302
  13 H :    0.156108
  14 H :    0.112515
  15 O :   -0.521096
  16 C :    0.057158
  17 C :    0.080678
  18 C :   -0.294113
  19 C :   -0.036455
  20 O :   -0.520674
  21 H :    0.175535
  22 O :   -0.599775
  23 H :    0.155713
  24 H :    0.165037
  25 H :    0.146976
  26 H :    0.149531
  27 H :    0.153631
  28 H :    0.366511
Sum of atomic charges:   -0.0000000

LOEWDIN ATOMIC CHARGES
----------------------
   0 C :    0.168149
   1 C :   -0.227286
   2 C :   -0.217276
   3 C :   -0.027230
   4 O :   -0.306137
   5 H :    0.123377
   6 H :    0.111131
   7 H :    0.110230
   8 H :    0.111308
   9 H :    0.117519
  10 H :    0.107015
  11 H :    0.099979
  12 C :   -0.040719
  13 H :    0.119607
  14 H :    0.082672
  15 O :   -0.335292
  16 C :    0.004324
  17 C :    0.038040
  18 C :   -0.240492
  19 C :   -0.040022
  20 O :   -0.326285
  21 H :    0.122673
  22 O :   -0.411433
  23 H :    0.117717
  24 H :    0.128433
  25 H :    0.114065
  26 H :    0.105057
  27 H :    0.106341
  28 H :    0.284534

  Mayer bond orders larger than 0.100000
B(  0-C ,  1-C ) :   0.9341 B(  0-C ,  4-O ) :   0.9268 B(  0-C ,  5-H ) :   0.8888
B(  0-C , 15-O ) :   0.8088 B(  1-C ,  2-C ) :   0.9536 B(  1-C ,  6-H ) :   0.9365
B(  1-C ,  7-H ) :   0.9394 B(  2-C ,  3-C ) :   0.9561 B(  2-C ,  8-H ) :   0.9458
B(  2-C ,  9-H ) :   0.9441 B(  3-C ,  4-O ) :   0.8415 B(  3-C , 10-H ) :   0.9348
B(  3-C , 11-H ) :   0.9401 B( 12-C , 13-H ) :   0.9290 B( 12-C , 14-H ) :   0.9174
B( 12-C , 15-O ) :   0.8785 B( 12-C , 16-C ) :   0.8886 B( 16-C , 17-C ) :   0.8946
B( 16-C , 20-O ) :   0.8407 B( 16-C , 21-H ) :   0.9213 B( 17-C , 18-C ) :   0.9100
B( 17-C , 22-O ) :   0.8946 B( 17-C , 23-H ) :   0.9334 B( 18-C , 19-C ) :   0.9426
B( 18-C , 24-H ) :   0.9369 B( 18-C , 25-H ) :   0.9329 B( 19-C , 20-O ) :   0.8381
B( 19-C , 26-H ) :   0.9338 B( 19-C , 27-H ) :   0.9375 B( 22-O , 28-H ) :   0.7941

FINAL SINGLE POINT ENERGY      -652.859207797322

DIPOLE MOMENT
-------------
                                X             Y             Z
Electronic contribution:     -1.72758      -5.61875       1.54947
Nuclear contribution   :      1.99470       6.67523      -2.63484
                        -----------------------------------------
Total Dipole Moment    :      0.26712       1.05648      -1.08536
                        -----------------------------------------
Magnitude (a.u.)       :      1.53803
Magnitude (Debye)      :      3.90935

Rotational constants in cm-1:     0.067270     0.012351     0.012040
Rotational constants in MHz :  2016.707462   370.280115   360.941476

                             ****ORCA TERMINATED NORMALLY****
TOTAL RUN TIME: 0 days 0 hours 41 minutes 2 seconds 461 msec
