                         Program Version 4.2.0 -  RELEASE  -
|  1> # Test redundant internal optimization
|  2> #
|  3> ! RKS B3LYP  Opt TightSCF SmallPrint
|  4>
|  5> %basis
|  6>         Basis "6-31G"
|  7> end
|  8>
|  9> %geom
| 10> Constraints
| 11> { D 4  0  15  12  120.0   C } # D for Dihedral angle
| 12> { D 0  15  12  16  210.0   C } # D for Dihedral angle
| 13> { D 0  4  3  2   C } # D for Dihedral angle
| 14> { D 4  3  2  1   C } # D for Dihedral angle
| 15> { D 3  2  1  0   C } # D for Dihedral angle
| 16> { D 2  1  0  4   C } # D for Dihedral angle
| 17> { D 1  0  4  3   C } # D for Dihedral angle
| 18> { D 16  20  19  18   C } # D for Dihedral angle
| 19> { D 20  19  18  17   C } # D for Dihedral angle
| 20> { D 19  18  17  16   C } # D for Dihedral angle
| 21> { D 18  17  16  20   C } # D for Dihedral angle
| 22> { D 17  16  20  19   C } # D for Dihedral angle
| 23> { D 15  12  16  20   C } # D for Dihedral angle
| 24> end
| 25> end
| 26>
| 27>
| 28> #%pal
| 29> #nprocs 8
| 30> #end
| 31>
| 32> * xyz 0 1
| 33> C  -21.048   26.222   46.251
| 34> C  -20.361   27.558   45.944
| 35> C  -20.329   28.222   47.341
| 36> C  -20.110   27.022   48.296
| 37> O  -20.473   25.807   47.535
| 38> H  -20.833   25.428   45.533
| 39> H  -19.344   27.382   45.576
| 40> H  -20.898   28.157   45.201
| 41> H  -19.543   28.978   47.434
| 42> H  -21.289   28.710   47.548
| 43> H  -20.733   27.082   49.195
| 44> H  -19.064   26.913   48.597
| 45> C  -23.119   27.818   46.058
| 46> H  -22.348   28.557   46.308
| 47> H  -23.350   27.912   44.989
| 48> O  -22.586   26.394   46.375
| 49> C  -24.408   28.168   46.853
| 50> C  -24.133   28.227   48.359
| 51> C  -23.479   29.622   48.505
| 52> C  -24.229   30.473   47.450
| 53> O  -24.866   29.520   46.516
| 54> H  -25.204   27.479   46.564
| 55> H  -25.077   28.182   48.915
| 56> O  -23.216   27.076   48.858
| 57> H  -23.574   30.031   49.515
| 58> H  -22.411   29.563   48.266
| 59> H  -23.558   31.131   46.888
| 60> H  -25.028   31.075   47.891
| 61> H  -22.265   27.102   48.315
| 62> *
| 63>
| 64>                          ****END OF INPUT****
 Total Charge           Charge          ....    0
 Multiplicity           Mult            ....    1
 Number of Electrons    NEL             ....  102
FINAL SINGLE POINT ENERGY      -652.797794989674
FINAL SINGLE POINT ENERGY      -652.830875071106
FINAL SINGLE POINT ENERGY      -652.846121348553
FINAL SINGLE POINT ENERGY      -652.851583606431
FINAL SINGLE POINT ENERGY      -652.854532401339
FINAL SINGLE POINT ENERGY      -652.856633273624
FINAL SINGLE POINT ENERGY      -652.858196194632
FINAL SINGLE POINT ENERGY      -652.859295975837
FINAL SINGLE POINT ENERGY      -652.859841202975
FINAL SINGLE POINT ENERGY      -652.859956202199
FINAL SINGLE POINT ENERGY      -652.860018677148
FINAL SINGLE POINT ENERGY      -652.860030972304
FINAL SINGLE POINT ENERGY      -652.860032470874
                    ***********************HURRAY********************

CARTESIAN COORDINATES (ANGSTROEM)
---------------------------------
  C    -21.125220   26.316679   46.304688
  C    -20.134366   27.405600   45.880097
  C    -19.937962   28.198039   47.202679
  C    -20.018044   27.089987   48.278715
  O    -20.674681   25.928699   47.613027
  H    -21.088962   25.413788   45.693546
  H    -19.201242   26.916927   45.582463
  H    -20.477945   28.021528   45.044518
  H    -18.979285   28.725096   47.226557
  H    -20.728054   28.940184   47.345129
  H    -20.626205   27.371647   49.139873
  H    -19.033746   26.744496   48.603928
  C    -23.099303   27.977606   46.007245
  H    -22.386781   28.786201   46.191655
  H    -23.374993   27.992776   44.947369
  O    -22.541874   26.668798   46.358089
  C    -24.354439   28.171575   46.866728
  C    -24.130358   28.213596   48.387999
  C    -23.647231   29.680798   48.599317
  C    -24.462005   30.464899   47.548607
  O    -24.957339   29.466325   46.559855
  H    -25.089976   27.410636   46.590631
  H    -25.103282   28.079126   48.877655
  O    -23.197580   27.266803   48.945911
  H    -23.826226   30.025828   49.620992
  H    -22.569597   29.728239   48.411118
  H    -23.873074   31.221359   47.019941
  H    -25.346952   30.944936   47.975678
  H    -22.889280   26.638829   48.251991

 Multiplicity           Mult            ....    1
 Number of Electrons    NEL             ....  102
 Basis Dimension        Dim             ....  149

ORBITAL ENERGIES
----------------

  NO   OCC          E(Eh)            E(eV)
   0   2.0000     -19.157743      -521.3087
   1   2.0000     -19.149763      -521.0915
   2   2.0000     -19.142912      -520.9051
   3   2.0000     -19.116269      -520.1801
   4   2.0000     -10.291476      -280.0453
   5   2.0000     -10.240027      -278.6453
   6   2.0000     -10.235354      -278.5181
   7   2.0000     -10.232916      -278.4518
   8   2.0000     -10.229253      -278.3521
   9   2.0000     -10.228198      -278.3234
  10   2.0000     -10.203089      -277.6402
  11   2.0000     -10.199498      -277.5424
  12   2.0000     -10.183875      -277.1173
  13   2.0000      -1.062308       -28.9069
  14   2.0000      -1.027746       -27.9664
  15   2.0000      -1.004692       -27.3391
  16   2.0000      -0.994061       -27.0498
  17   2.0000      -0.798036       -21.7157
  18   2.0000      -0.777829       -21.1658
  19   2.0000      -0.771145       -20.9839
  20   2.0000      -0.737054       -20.0563
  21   2.0000      -0.684013       -18.6129
  22   2.0000      -0.612147       -16.6574
  23   2.0000      -0.600107       -16.3297
  24   2.0000      -0.596705       -16.2372
  25   2.0000      -0.577782       -15.7222
  26   2.0000      -0.531551       -14.4642
  27   2.0000      -0.513089       -13.9619
  28   2.0000      -0.510478       -13.8908
  29   2.0000      -0.492902       -13.4125
  30   2.0000      -0.474931       -12.9235
  31   2.0000      -0.456910       -12.4332
  32   2.0000      -0.445403       -12.1200
  33   2.0000      -0.439562       -11.9611
  34   2.0000      -0.430572       -11.7165
  35   2.0000      -0.420114       -11.4319
  36   2.0000      -0.412147       -11.2151
  37   2.0000      -0.391881       -10.6636
  38   2.0000      -0.384533       -10.4637
  39   2.0000      -0.372968       -10.1490
  40   2.0000      -0.365229        -9.9384
  41   2.0000      -0.363965        -9.9040
  42   2.0000      -0.349858        -9.5201
  43   2.0000      -0.339613        -9.2413
  44   2.0000      -0.325306        -8.8520
  45   2.0000      -0.306814        -8.3488
  46   2.0000      -0.294538        -8.0148
  47   2.0000      -0.277694        -7.5564
  48   2.0000      -0.264115        -7.1869
  49   2.0000      -0.248390        -6.7590
  50   2.0000      -0.245625        -6.6838
  51   0.0000       0.058693         1.5971
  52   0.0000       0.065113         1.7718
  53   0.0000       0.087706         2.3866
  54   0.0000       0.095068         2.5869
  55   0.0000       0.105316         2.8658

MULLIKEN ATOMIC CHARGES
-----------------------
   0 C :    0.322083
   1 C :   -0.301860
   2 C :   -0.319110
   3 C :   -0.023410
   4 O :   -0.503528
   5 H :    0.166993
   6 H :    0.162856
   7 H :    0.152346
   8 H :    0.148960
   9 H :    0.160262
  10 H :    0.182408
  11 H :    0.146699
  12 C :   -0.003953
  13 H :    0.131784
  14 H :    0.157812
  15 O :   -0.568618
  16 C :    0.052319
  17 C :    0.126228
  18 C :   -0.315086
  19 C :   -0.014186
  20 O :   -0.522444
  21 H :    0.164833
  22 H :    0.144698
  23 O :   -0.645943
  24 H :    0.152859
  25 H :    0.150320
  26 H :    0.137855
  27 H :    0.149698
  28 H :    0.407122
Sum of atomic charges:   -0.0000000

LOEWDIN ATOMIC CHARGES
----------------------
   0 C :    0.182087
   1 C :   -0.230284
   2 C :   -0.221803
   3 C :   -0.035776
   4 O :   -0.313474
   5 H :    0.111055
   6 H :    0.126658
   7 H :    0.118297
   8 H :    0.118375
   9 H :    0.109029
  10 H :    0.121938
  11 H :    0.105663
  12 C :   -0.039630
  13 H :    0.096532
  14 H :    0.109598
  15 O :   -0.345137
  16 C :    0.019114
  17 C :    0.042607
  18 C :   -0.234384
  19 C :   -0.031751
  20 O :   -0.322785
  21 H :    0.116785
  22 H :    0.102226
  23 O :   -0.434165
  24 H :    0.122025
  25 H :    0.108295
  26 H :    0.099875
  27 H :    0.106440
  28 H :    0.292589

  Mayer bond orders larger than 0.100000
B(  0-C ,  1-C ) :   0.9348 B(  0-C ,  4-O ) :   0.9260 B(  0-C ,  5-H ) :   0.9302
B(  0-C , 15-O ) :   0.8253 B(  1-C ,  2-C ) :   0.9493 B(  1-C ,  6-H ) :   0.9324
B(  1-C ,  7-H ) :   0.9311 B(  2-C ,  3-C ) :   0.9489 B(  2-C ,  8-H ) :   0.9451
B(  2-C ,  9-H ) :   0.9272 B(  3-C ,  4-O ) :   0.8228 B(  3-C , 10-H ) :   0.9177
B(  3-C , 11-H ) :   0.9386 B( 12-C , 13-H ) :   0.9100 B( 12-C , 14-H ) :   0.9267
B( 12-C , 15-O ) :   0.7954 B( 12-C , 16-C ) :   0.9018 B( 16-C , 17-C ) :   0.9118
B( 16-C , 20-O ) :   0.8566 B( 16-C , 21-H ) :   0.9282 B( 17-C , 18-C ) :   0.9095
B( 17-C , 22-H ) :   0.9246 B( 17-C , 23-O ) :   0.9253 B( 18-C , 19-C ) :   0.9392
B( 18-C , 24-H ) :   0.9451 B( 18-C , 25-H ) :   0.9356 B( 19-C , 20-O ) :   0.8347
B( 19-C , 26-H ) :   0.9346 B( 19-C , 27-H ) :   0.9385 B( 23-O , 28-H ) :   0.7107

FINAL SINGLE POINT ENERGY      -652.860032587286

DIPOLE MOMENT
-------------
                                X             Y             Z
Electronic contribution:     -3.78112      -5.14352      -0.62349
Nuclear contribution   :      4.84057       6.17375       0.01194
                        -----------------------------------------
Total Dipole Moment    :      1.05945       1.03023      -0.61155
                        -----------------------------------------
Magnitude (a.u.)       :      1.59931
Magnitude (Debye)      :      4.06512

Rotational constants in cm-1:     0.047139     0.017659     0.016837
Rotational constants in MHz :  1413.185857   529.389917   504.766329

                             ****ORCA TERMINATED NORMALLY****
TOTAL RUN TIME: 0 days 1 hours 11 minutes 55 seconds 511 msec
