                         Program Version 4.2.1 -  RELEASE  -
|  1> # Test redundant internal optimization
|  2> #
|  3> ! RKS B3LYP  Opt TightSCF SmallPrint
|  4>
|  5> %basis
|  6>         Basis "6-31G"
|  7> end
|  8>
|  9> %geom
| 10> Constraints
| 11> { D 4  0  19  14  195.0   C } # D for Dihedral angle
| 12> { D 0  19  14  12  15.0   C } # D for Dihedral angle
| 13> { D 0  4  3  2   C } # D for Dihedral angle
| 14> { D 4  3  2  1   C } # D for Dihedral angle
| 15> { D 3  2  1  0   C } # D for Dihedral angle
| 16> { D 2  1  0  4   C } # D for Dihedral angle
| 17> { D 1  0  4  3   C } # D for Dihedral angle
| 18> { D 14  15  16  17   C } # D for Dihedral angle
| 19> { D 15  16  17  12   C } # D for Dihedral angle
| 20> { D 16  17  12  14   C } # D for Dihedral angle
| 21> { D 17  12  14  15   C } # D for Dihedral angle
| 22> { D 12  14  15  16   C } # D for Dihedral angle
| 23> end
| 24> end
| 25>
| 26>
| 27> #%pal
| 28> #nprocs 8
| 29> #end
| 30>
| 31> * xyz 0 1
| 32> C  -21.048   26.222   46.251
| 33> C  -20.361   27.558   45.944
| 34> C  -20.329   28.222   47.341
| 35> C  -20.110   27.022   48.296
| 36> O  -20.473   25.807   47.535
| 37> H  -20.833   25.428   45.533
| 38> H  -19.344   27.382   45.576
| 39> H  -20.898   28.157   45.201
| 40> H  -19.543   28.978   47.434
| 41> H  -21.289   28.710   47.548
| 42> H  -20.733   27.082   49.195
| 43> H  -19.064   26.913   48.597
| 44> C  -22.248   25.968   43.978
| 45> H  -22.631   26.277   42.992
| 46> C  -23.163   26.451   45.109
| 47> C  -24.306   25.410   45.055
| 48> C  -23.573   24.103   44.664
| 49> O  -22.266   24.506   44.098
| 50> H  -21.208   26.283   44.072
| 51> O  -22.472   26.381   46.366
| 52> H  -23.517   27.478   44.966
| 53> H  -24.844   25.320   46.003
| 54> H  -25.035   25.689   44.283
| 55> H  -24.122   23.520   43.916
| 56> H  -23.366   23.465   45.529
| 57> *
| 58>
| 59>                          ****END OF INPUT****
 Total Charge           Charge          ....    0
 Multiplicity           Mult            ....    1
 Number of Electrons    NEL             ....   86
FINAL SINGLE POINT ENERGY      -538.414724905729
FINAL SINGLE POINT ENERGY      -538.426764963351
FINAL SINGLE POINT ENERGY      -538.428243138893
FINAL SINGLE POINT ENERGY      -538.428590051489
FINAL SINGLE POINT ENERGY      -538.428639877421
FINAL SINGLE POINT ENERGY      -538.428655312313
FINAL SINGLE POINT ENERGY      -538.428657085244
                    ***********************HURRAY********************

CARTESIAN COORDINATES (ANGSTROEM)
---------------------------------
  C    -20.909828   26.211606   46.243129
  C    -20.189789   27.537605   46.002394
  C    -20.332355   28.236110   47.377832
  C    -20.238334   27.057375   48.369454
  O    -20.509988   25.835817   47.569410
  H    -20.644594   25.387378   45.578083
  H    -19.135809   27.341601   45.770633
  H    -20.620592   28.121721   45.184175
  H    -19.558470   28.990355   47.548775
  H    -21.311159   28.719627   47.446120
  H    -20.970843   27.115562   49.178729
  H    -19.236926   26.937096   48.793808
  C    -22.405655   25.973968   43.769137
  H    -22.973842   26.285995   42.880005
  C    -23.133529   26.447579   45.027641
  C    -24.250104   25.393101   45.155798
  C    -23.577875   24.093248   44.656968
  O    -22.380054   24.515199   43.887370
  H    -21.375744   26.314518   43.658965
  O    -22.358854   26.383761   46.271843
  H    -23.519846   27.467819   44.922394
  H    -24.591059   25.328473   46.190695
  H    -25.100505   25.667506   44.520254
  H    -24.228269   23.504521   44.001546
  H    -23.221978   23.464460   45.476843

 Multiplicity           Mult            ....    1
 Number of Electrons    NEL             ....   86
 Basis Dimension        Dim             ....  127

ORBITAL ENERGIES
----------------

  NO   OCC          E(Eh)            E(eV)
   0   2.0000     -19.136854      -520.7403
   1   2.0000     -19.135339      -520.6990
   2   2.0000     -19.133420      -520.6468
   3   2.0000     -10.272536      -279.5299
   4   2.0000     -10.242426      -278.7106
   5   2.0000     -10.231593      -278.4158
   6   2.0000     -10.222644      -278.1723
   7   2.0000     -10.221160      -278.1319
   8   2.0000     -10.184397      -277.1315
   9   2.0000     -10.183971      -277.1199
  10   2.0000     -10.183828      -277.1160
  11   2.0000      -1.048090       -28.5200
  12   2.0000      -1.019051       -27.7298
  13   2.0000      -0.983867       -26.7724
  14   2.0000      -0.787539       -21.4300
  15   2.0000      -0.778294       -21.1784
  16   2.0000      -0.740264       -20.1436
  17   2.0000      -0.724862       -19.7245
  18   2.0000      -0.618368       -16.8267
  19   2.0000      -0.601428       -16.3657
  20   2.0000      -0.592547       -16.1240
  21   2.0000      -0.562928       -15.3180
  22   2.0000      -0.523722       -14.2512
  23   2.0000      -0.500343       -13.6150
  24   2.0000      -0.486205       -13.2303
  25   2.0000      -0.482645       -13.1334
  26   2.0000      -0.452116       -12.3027
  27   2.0000      -0.449167       -12.2225
  28   2.0000      -0.425477       -11.5778
  29   2.0000      -0.414914       -11.2904
  30   2.0000      -0.402374       -10.9492
  31   2.0000      -0.383264       -10.4291
  32   2.0000      -0.372515       -10.1367
  33   2.0000      -0.366940        -9.9850
  34   2.0000      -0.362163        -9.8549
  35   2.0000      -0.353742        -9.6258
  36   2.0000      -0.348287        -9.4774
  37   2.0000      -0.317553        -8.6410
  38   2.0000      -0.306782        -8.3480
  39   2.0000      -0.294328        -8.0091
  40   2.0000      -0.254632        -6.9289
  41   2.0000      -0.245933        -6.6922
  42   2.0000      -0.242528        -6.5995
  43   0.0000       0.076629         2.0852
  44   0.0000       0.095324         2.5939
  45   0.0000       0.099368         2.7039
  46   0.0000       0.107684         2.9302
  47   0.0000       0.115277         3.1368

MULLIKEN ATOMIC CHARGES
-----------------------
   0 C :    0.288482
   1 C :   -0.268476
   2 C :   -0.298680
   3 C :   -0.000731
   4 O :   -0.506674
   5 H :    0.172917
   6 H :    0.145563
   7 H :    0.134986
   8 H :    0.140305
   9 H :    0.157672
  10 H :    0.151899
  11 H :    0.140495
  12 C :   -0.038540
  13 H :    0.134379
  14 C :    0.087106
  15 C :   -0.279473
  16 C :   -0.013845
  17 O :   -0.522711
  18 H :    0.156255
  19 O :   -0.525297
  20 H :    0.133886
  21 H :    0.171514
  22 H :    0.133979
  23 H :    0.140422
  24 H :    0.164567
Sum of atomic charges:   -0.0000000

LOEWDIN ATOMIC CHARGES
----------------------
   0 C :    0.175896
   1 C :   -0.232283
   2 C :   -0.216837
   3 C :   -0.025609
   4 O :   -0.302635
   5 H :    0.111418
   6 H :    0.114336
   7 H :    0.109489
   8 H :    0.113413
   9 H :    0.116888
  10 H :    0.107937
  11 H :    0.101575
  12 C :   -0.054611
  13 H :    0.099066
  14 C :    0.041259
  15 C :   -0.224136
  16 C :   -0.030636
  17 O :   -0.334314
  18 H :    0.112490
  19 O :   -0.338173
  20 H :    0.100832
  21 H :    0.132392
  22 H :    0.107900
  23 H :    0.101109
  24 H :    0.113237

  Mayer bond orders larger than 0.100000
B(  0-C ,  1-C ) :   0.9261 B(  0-C ,  4-O ) :   0.9222 B(  0-C ,  5-H ) :   0.9052
B(  0-C , 19-O ) :   0.8231 B(  1-C ,  2-C ) :   0.9503 B(  1-C ,  6-H ) :   0.9343
B(  1-C ,  7-H ) :   0.9371 B(  2-C ,  3-C ) :   0.9557 B(  2-C ,  8-H ) :   0.9451
B(  2-C ,  9-H ) :   0.9450 B(  3-C ,  4-O ) :   0.8386 B(  3-C , 10-H ) :   0.9348
B(  3-C , 11-H ) :   0.9398 B( 12-C , 13-H ) :   0.9140 B( 12-C , 14-C ) :   0.9223
B( 12-C , 17-O ) :   0.8581 B( 12-C , 18-H ) :   0.9261 B( 14-C , 15-C ) :   0.9395
B( 14-C , 19-O ) :   0.8470 B( 14-C , 20-H ) :   0.9250 B( 15-C , 16-C ) :   0.9480
B( 15-C , 21-H ) :   0.9348 B( 15-C , 22-H ) :   0.9394 B( 16-C , 17-O ) :   0.8411
B( 16-C , 23-H ) :   0.9346 B( 16-C , 24-H ) :   0.9349

FINAL SINGLE POINT ENERGY      -538.428657521913

DIPOLE MOMENT
-------------
                                X             Y             Z
Electronic contribution:      0.34118      -3.22933       0.31998
Nuclear contribution   :     -0.66292       4.39284      -0.67745
                        -----------------------------------------
Total Dipole Moment    :     -0.32175       1.16351      -0.35747
                        -----------------------------------------
Magnitude (a.u.)       :      1.25899
Magnitude (Debye)      :      3.20010

Rotational constants in cm-1:     0.082757     0.021485     0.020849
Rotational constants in MHz :  2480.987591   644.103968   625.036578

                             ****ORCA TERMINATED NORMALLY****
TOTAL RUN TIME: 0 days 0 hours 8 minutes 0 seconds 814 msec
