                         Program Version 4.2.0 -  RELEASE  -
|  1> # Test redundant internal optimization
|  2> #
|  3> ! RKS B3LYP  Opt TightSCF SmallPrint
|  4>
|  5> %basis
|  6>         Basis "6-31G"
|  7> end
|  8>
|  9> %geom
| 10> Constraints
| 11> { D 4  0  15  12  135.0   C } # D for Dihedral angle
| 12> { D 0  15  12  16  180.0   C } # D for Dihedral angle
| 13> { D 0  4  3  2   C } # D for Dihedral angle
| 14> { D 4  3  2  1   C } # D for Dihedral angle
| 15> { D 3  2  1  0   C } # D for Dihedral angle
| 16> { D 2  1  0  4   C } # D for Dihedral angle
| 17> { D 1  0  4  3   C } # D for Dihedral angle
| 18> { D 16  20  19  18   C } # D for Dihedral angle
| 19> { D 20  19  18  17   C } # D for Dihedral angle
| 20> { D 19  18  17  16   C } # D for Dihedral angle
| 21> { D 18  17  16  20   C } # D for Dihedral angle
| 22> { D 17  16  20  19   C } # D for Dihedral angle
| 23> { D 15  12  16  20   C } # D for Dihedral angle
| 24> end
| 25> end
| 26>
| 27>
| 28> #%pal
| 29> #nprocs 8
| 30> #end
| 31>
| 32> * xyz 0 1
| 33> C  -21.048   26.222   46.251
| 34> C  -20.361   27.558   45.944
| 35> C  -20.329   28.222   47.341
| 36> C  -20.110   27.022   48.296
| 37> O  -20.473   25.807   47.535
| 38> H  -20.833   25.428   45.533
| 39> H  -19.344   27.382   45.576
| 40> H  -20.898   28.157   45.201
| 41> H  -19.543   28.978   47.434
| 42> H  -21.289   28.710   47.548
| 43> H  -20.733   27.082   49.195
| 44> H  -19.064   26.913   48.597
| 45> C  -23.162   27.680   45.721
| 46> H  -22.701   28.560   46.186
| 47> H  -22.933   27.700   44.647
| 48> O  -22.586   26.394   46.375
| 49> C  -24.703   27.795   45.878
| 50> C  -25.413   26.552   45.328
| 51> C  -25.217   25.543   46.485
| 52> C  -25.296   26.435   47.748
| 53> O  -25.073   27.826   47.296
| 54> H  -25.038   28.737   45.439
| 55> H  -26.478   26.764   45.177
| 56> O  -24.817   26.052   43.985
| 57> H  -25.969   24.747   46.487
| 58> H  -24.230   25.069   46.408
| 59> H  -24.539   26.174   48.495
| 60> H  -26.283   26.404   48.220
| 61> H  -23.751   25.834   44.113
| 62> *
| 63>
| 64>                          ****END OF INPUT****
 Total Charge           Charge          ....    0
 Multiplicity           Mult            ....    1
 Number of Electrons    NEL             ....  102
FINAL SINGLE POINT ENERGY      -652.825743698902
FINAL SINGLE POINT ENERGY      -652.849371866425
FINAL SINGLE POINT ENERGY      -652.854619771755
FINAL SINGLE POINT ENERGY      -652.856451689501
FINAL SINGLE POINT ENERGY      -652.856638137793
FINAL SINGLE POINT ENERGY      -652.856673757670
FINAL SINGLE POINT ENERGY      -652.856674461193
                    ***********************HURRAY********************

CARTESIAN COORDINATES (ANGSTROEM)
---------------------------------
  C    -21.105616   26.337278   46.252759
  C    -20.242252   27.562109   45.943183
  C    -20.185855   28.275955   47.320750
  C    -20.165565   27.091569   48.312487
  O    -20.652387   25.915497   47.548899
  H    -20.949574   25.487398   45.584066
  H    -19.246009   27.213291   45.650845
  H    -20.626234   28.195233   45.139406
  H    -19.303733   28.915616   47.419532
  H    -21.073503   28.897619   47.473406
  H    -20.816894   27.243387   49.176547
  H    -19.157161   26.844828   48.656231
  C    -23.147589   27.759390   45.714177
  H    -22.753341   28.671529   46.176170
  H    -22.954683   27.800053   44.632521
  O    -22.546639   26.574762   46.311718
  C    -24.658699   27.735115   45.932634
  C    -25.400115   26.528847   45.329615
  C    -25.245481   25.460914   46.456051
  C    -25.313694   26.312719   47.741205
  O    -25.043619   27.717591   47.334634
  H    -25.044082   28.675803   45.520092
  H    -26.448853   26.783667   45.163803
  O    -24.902408   26.111226   44.034103
  H    -26.032533   24.701594   46.411243
  H    -24.269064   24.981353   46.363290
  H    -24.565189   26.015419   48.479845
  H    -26.306899   26.304495   48.200945
  H    -24.056329   25.632742   44.158843

 Multiplicity           Mult            ....    1
 Number of Electrons    NEL             ....  102
 Basis Dimension        Dim             ....  149

ORBITAL ENERGIES
----------------

  NO   OCC          E(Eh)            E(eV)
   0   2.0000     -19.147819      -521.0386
   1   2.0000     -19.144350      -520.9442
   2   2.0000     -19.138358      -520.7812
   3   2.0000     -19.130372      -520.5639
   4   2.0000     -10.287129      -279.9270
   5   2.0000     -10.233901      -278.4786
   6   2.0000     -10.233722      -278.4737
   7   2.0000     -10.230057      -278.3740
   8   2.0000     -10.229300      -278.3534
   9   2.0000     -10.216479      -278.0045
  10   2.0000     -10.198312      -277.5102
  11   2.0000     -10.195855      -277.4433
  12   2.0000     -10.174462      -276.8612
  13   2.0000      -1.056763       -28.7560
  14   2.0000      -1.025129       -27.8952
  15   2.0000      -1.007522       -27.4161
  16   2.0000      -0.996100       -27.1053
  17   2.0000      -0.794314       -21.6144
  18   2.0000      -0.773623       -21.0513
  19   2.0000      -0.763075       -20.7643
  20   2.0000      -0.735466       -20.0130
  21   2.0000      -0.680268       -18.5110
  22   2.0000      -0.609292       -16.5797
  23   2.0000      -0.599337       -16.3088
  24   2.0000      -0.597644       -16.2627
  25   2.0000      -0.561952       -15.2915
  26   2.0000      -0.530055       -14.4235
  27   2.0000      -0.508743       -13.8436
  28   2.0000      -0.504516       -13.7286
  29   2.0000      -0.487413       -13.2632
  30   2.0000      -0.472238       -12.8502
  31   2.0000      -0.457748       -12.4560
  32   2.0000      -0.447704       -12.1826
  33   2.0000      -0.426217       -11.5980
  34   2.0000      -0.421177       -11.4608
  35   2.0000      -0.418076       -11.3764
  36   2.0000      -0.401745       -10.9321
  37   2.0000      -0.398484       -10.8433
  38   2.0000      -0.388267       -10.5653
  39   2.0000      -0.366415        -9.9707
  40   2.0000      -0.365209        -9.9379
  41   2.0000      -0.358672        -9.7600
  42   2.0000      -0.348545        -9.4844
  43   2.0000      -0.324311        -8.8250
  44   2.0000      -0.315420        -8.5830
  45   2.0000      -0.306295        -8.3347
  46   2.0000      -0.298929        -8.1343
  47   2.0000      -0.272885        -7.4256
  48   2.0000      -0.259382        -7.0582
  49   2.0000      -0.256731        -6.9860
  50   2.0000      -0.236192        -6.4271
  51   0.0000       0.061704         1.6791
  52   0.0000       0.083434         2.2704
  53   0.0000       0.091969         2.5026
  54   0.0000       0.094959         2.5840
  55   0.0000       0.105610         2.8738

MULLIKEN ATOMIC CHARGES
-----------------------
   0 C :    0.320996
   1 C :   -0.301307
   2 C :   -0.307997
   3 C :   -0.002913
   4 O :   -0.497037
   5 H :    0.148933
   6 H :    0.156248
   7 H :    0.148861
   8 H :    0.147718
   9 H :    0.163813
  10 H :    0.157189
  11 H :    0.145154
  12 C :   -0.014256
  13 H :    0.138047
  14 H :    0.134544
  15 O :   -0.541107
  16 C :    0.096846
  17 C :    0.083156
  18 C :   -0.312875
  19 C :   -0.002923
  20 O :   -0.524769
  21 H :    0.143920
  22 H :    0.160650
  23 O :   -0.607956
  24 H :    0.142523
  25 H :    0.170721
  26 H :    0.156054
  27 H :    0.137113
  28 H :    0.360654
Sum of atomic charges:   -0.0000000

LOEWDIN ATOMIC CHARGES
----------------------
   0 C :    0.182095
   1 C :   -0.232317
   2 C :   -0.218662
   3 C :   -0.027202
   4 O :   -0.309026
   5 H :    0.101032
   6 H :    0.122455
   7 H :    0.116816
   8 H :    0.117277
   9 H :    0.115637
  10 H :    0.110642
  11 H :    0.104384
  12 C :   -0.047427
  13 H :    0.099612
  14 H :    0.096052
  15 O :   -0.341986
  16 C :    0.021798
  17 C :    0.037261
  18 C :   -0.242585
  19 C :   -0.023961
  20 O :   -0.324293
  21 H :    0.111938
  22 H :    0.115478
  23 O :   -0.413137
  24 H :    0.113900
  25 H :    0.124760
  26 H :    0.110117
  27 H :    0.099080
  28 H :    0.280264

  Mayer bond orders larger than 0.100000
B(  0-C ,  1-C ) :   0.9347 B(  0-C ,  4-O ) :   0.9347 B(  0-C ,  5-H ) :   0.9293
B(  0-C , 15-O ) :   0.8394 B(  1-C ,  2-C ) :   0.9511 B(  1-C ,  6-H ) :   0.9337
B(  1-C ,  7-H ) :   0.9278 B(  2-C ,  3-C ) :   0.9519 B(  2-C ,  8-H ) :   0.9450
B(  2-C ,  9-H ) :   0.9371 B(  3-C ,  4-O ) :   0.8363 B(  3-C , 10-H ) :   0.9337
B(  3-C , 11-H ) :   0.9396 B( 12-C , 13-H ) :   0.9081 B( 12-C , 14-H ) :   0.9020
B( 12-C , 15-O ) :   0.8346 B( 12-C , 16-C ) :   0.9090 B( 16-C , 17-C ) :   0.8856
B( 16-C , 20-O ) :   0.8849 B( 16-C , 21-H ) :   0.9296 B( 17-C , 18-C ) :   0.9356
B( 17-C , 22-H ) :   0.9360 B( 17-C , 23-O ) :   0.8977 B( 18-C , 19-C ) :   0.9472
B( 18-C , 24-H ) :   0.9410 B( 18-C , 25-H ) :   0.9247 B( 19-C , 20-O ) :   0.8335
B( 19-C , 26-H ) :   0.9311 B( 19-C , 27-H ) :   0.9380 B( 23-O , 28-H ) :   0.7947

FINAL SINGLE POINT ENERGY      -652.856673161960

DIPOLE MOMENT
-------------
                                X             Y             Z
Electronic contribution:     -2.71660      -1.94482      -0.81676
Nuclear contribution   :      3.74293       2.37902       0.66950
                        -----------------------------------------
Total Dipole Moment    :      1.02633       0.43420      -0.14727
                        -----------------------------------------
Magnitude (a.u.)       :      1.12408
Magnitude (Debye)      :      2.85720

Rotational constants in cm-1:     0.048152     0.015783     0.014723
Rotational constants in MHz :  1443.569708   473.173369   441.398930

                             ****ORCA TERMINATED NORMALLY****
TOTAL RUN TIME: 0 days 0 hours 32 minutes 10 seconds 414 msec
