                         Program Version 4.2.0 -  RELEASE  -
|  1> # Test redundant internal optimization
|  2> #
|  3> ! RKS B3LYP  Opt TightSCF SmallPrint
|  4>
|  5> %basis
|  6>         Basis "6-31G"
|  7> end
|  8>
|  9> %geom
| 10> Constraints
| 11> { D 4  0  15  12  30.0   C } # D for Dihedral angle
| 12> { D 0  15  12  16  135.0   C } # D for Dihedral angle
| 13> { D 0  4  3  2   C } # D for Dihedral angle
| 14> { D 4  3  2  1   C } # D for Dihedral angle
| 15> { D 3  2  1  0   C } # D for Dihedral angle
| 16> { D 2  1  0  4   C } # D for Dihedral angle
| 17> { D 1  0  4  3   C } # D for Dihedral angle
| 18> { D 16  20  19  18   C } # D for Dihedral angle
| 19> { D 20  19  18  17   C } # D for Dihedral angle
| 20> { D 19  18  17  16   C } # D for Dihedral angle
| 21> { D 18  17  16  20   C } # D for Dihedral angle
| 22> { D 17  16  20  19   C } # D for Dihedral angle
| 23> { D 15  12  16  20   C } # D for Dihedral angle
| 24> end
| 25> end
| 26>
| 27>
| 28> #%pal
| 29> #nprocs 8
| 30> #end
| 31>
| 32> * xyz 0 1
| 33> C  -21.048   26.222   46.251
| 34> C  -20.361   27.558   45.944
| 35> C  -20.329   28.222   47.341
| 36> C  -20.110   27.022   48.296
| 37> O  -20.473   25.807   47.535
| 38> H  -20.833   25.428   45.533
| 39> H  -19.344   27.382   45.576
| 40> H  -20.898   28.157   45.201
| 41> H  -19.543   28.978   47.434
| 42> H  -21.289   28.710   47.548
| 43> H  -20.733   27.082   49.195
| 44> H  -19.064   26.913   48.597
| 45> C  -23.091   26.824   47.779
| 46> H  -23.540   25.959   48.283
| 47> H  -22.256   27.184   48.394
| 48> O  -22.586   26.394   46.375
| 49> C  -24.154   27.956   47.715
| 50> C  -25.432   27.481   47.016
| 51> C  -26.128   26.682   48.143
| 52> C  -25.756   27.479   49.419
| 53> O  -24.595   28.322   49.065
| 54> H  -23.701   28.846   47.274
| 55> H  -26.041   28.342   46.720
| 56> O  -25.153   26.622   45.752
| 57> H  -27.210   26.602   48.001
| 58> H  -25.720   25.665   48.190
| 59> H  -25.484   26.827   50.256
| 60> H  -26.557   28.150   49.740
| 61> H  -24.544   25.753   46.025
| 62> *
| 63>
| 64>                          ****END OF INPUT****
 Total Charge           Charge          ....    0
 Multiplicity           Mult            ....    1
 Number of Electrons    NEL             ....  102
FINAL SINGLE POINT ENERGY      -652.821398637645
FINAL SINGLE POINT ENERGY      -652.847174055571
FINAL SINGLE POINT ENERGY      -652.856110164788
FINAL SINGLE POINT ENERGY      -652.859477778819
FINAL SINGLE POINT ENERGY      -652.861037070196
FINAL SINGLE POINT ENERGY      -652.861923057862
FINAL SINGLE POINT ENERGY      -652.862304877264
FINAL SINGLE POINT ENERGY      -652.862395061422
FINAL SINGLE POINT ENERGY      -652.862407845242
                    ***********************HURRAY********************

CARTESIAN COORDINATES (ANGSTROEM)
---------------------------------
  C    -21.165958   26.265620   46.422453
  C    -20.480816   27.548666   45.943413
  C    -20.134785   28.248316   47.284884
  C    -19.799069   27.060887   48.216471
  O    -20.386460   25.856637   47.560866
  H    -21.123596   25.448807   45.700355
  H    -19.570751   27.279519   45.395746
  H    -21.123385   28.146785   45.293330
  H    -19.295411   28.943565   47.189903
  H    -20.995277   28.815982   47.654354
  H    -20.217271   27.156017   49.222269
  H    -18.723751   26.876376   48.293151
  C    -23.121722   26.795796   47.995157
  H    -23.533366   25.900547   48.472520
  H    -22.345188   27.195067   48.648105
  O    -22.593439   26.410557   46.681337
  C    -24.200278   27.862225   47.776152
  C    -25.427817   27.389164   46.979157
  C    -26.234364   26.621746   48.067510
  C    -25.958840   27.437442   49.347525
  O    -24.744062   28.264081   49.071530
  H    -23.742624   28.751687   47.332754
  H    -25.997957   28.269733   46.661450
  O    -25.154768   26.610192   45.799740
  H    -27.297891   26.567916   47.819455
  H    -25.854555   25.597233   48.137910
  H    -25.764956   26.815416   50.226765
  H    -26.763847   28.139561   49.582059
  H    -24.220797   26.293460   45.821678

 Multiplicity           Mult            ....    1
 Number of Electrons    NEL             ....  102
 Basis Dimension        Dim             ....  149

ORBITAL ENERGIES
----------------

  NO   OCC          E(Eh)            E(eV)
   0   2.0000     -19.160315      -521.3787
   1   2.0000     -19.159669      -521.3611
   2   2.0000     -19.140670      -520.8441
   3   2.0000     -19.111781      -520.0580
   4   2.0000     -10.293127      -280.0902
   5   2.0000     -10.241476      -278.6847
   6   2.0000     -10.237815      -278.5851
   7   2.0000     -10.233857      -278.4774
   8   2.0000     -10.229521      -278.3594
   9   2.0000     -10.226295      -278.2716
  10   2.0000     -10.201419      -277.5947
  11   2.0000     -10.196855      -277.4705
  12   2.0000     -10.178054      -276.9589
  13   2.0000      -1.066502       -29.0210
  14   2.0000      -1.025830       -27.9143
  15   2.0000      -1.007965       -27.4281
  16   2.0000      -0.990933       -26.9647
  17   2.0000      -0.799236       -21.7483
  18   2.0000      -0.778685       -21.1891
  19   2.0000      -0.768003       -20.8984
  20   2.0000      -0.738792       -20.1035
  21   2.0000      -0.680945       -18.5294
  22   2.0000      -0.613911       -16.7054
  23   2.0000      -0.601880       -16.3780
  24   2.0000      -0.595340       -16.2000
  25   2.0000      -0.577979       -15.7276
  26   2.0000      -0.537631       -14.6297
  27   2.0000      -0.510767       -13.8987
  28   2.0000      -0.510108       -13.8807
  29   2.0000      -0.489094       -13.3089
  30   2.0000      -0.476521       -12.9668
  31   2.0000      -0.459006       -12.4902
  32   2.0000      -0.445134       -12.1127
  33   2.0000      -0.430515       -11.7149
  34   2.0000      -0.426501       -11.6057
  35   2.0000      -0.425362       -11.5747
  36   2.0000      -0.409890       -11.1537
  37   2.0000      -0.387991       -10.5578
  38   2.0000      -0.387328       -10.5397
  39   2.0000      -0.370704       -10.0874
  40   2.0000      -0.366284        -9.9671
  41   2.0000      -0.359222        -9.7749
  42   2.0000      -0.356566        -9.7027
  43   2.0000      -0.342593        -9.3224
  44   2.0000      -0.330171        -8.9844
  45   2.0000      -0.321277        -8.7424
  46   2.0000      -0.288137        -7.8406
  47   2.0000      -0.272976        -7.4281
  48   2.0000      -0.271385        -7.3848
  49   2.0000      -0.247960        -6.7473
  50   2.0000      -0.239868        -6.5271
  51   0.0000       0.056702         1.5429
  52   0.0000       0.068074         1.8524
  53   0.0000       0.089564         2.4372
  54   0.0000       0.094922         2.5830
  55   0.0000       0.101277         2.7559

MULLIKEN ATOMIC CHARGES
-----------------------
   0 C :    0.310393
   1 C :   -0.263974
   2 C :   -0.318575
   3 C :   -0.026233
   4 O :   -0.503549
   5 H :    0.169307
   6 H :    0.154443
   7 H :    0.159918
   8 H :    0.154314
   9 H :    0.159214
  10 H :    0.154426
  11 H :    0.156885
  12 C :   -0.018561
  13 H :    0.154837
  14 H :    0.160682
  15 O :   -0.575504
  16 C :    0.060599
  17 C :    0.118999
  18 C :   -0.305290
  19 C :   -0.019297
  20 O :   -0.524950
  21 H :    0.147974
  22 H :    0.146615
  23 O :   -0.641554
  24 H :    0.153118
  25 H :    0.148428
  26 H :    0.142181
  27 H :    0.148937
  28 H :    0.396215
Sum of atomic charges:   -0.0000000

LOEWDIN ATOMIC CHARGES
----------------------
   0 C :    0.184815
   1 C :   -0.225032
   2 C :   -0.222870
   3 C :   -0.035468
   4 O :   -0.312689
   5 H :    0.114110
   6 H :    0.119835
   7 H :    0.124601
   8 H :    0.121061
   9 H :    0.114297
  10 H :    0.105514
  11 H :    0.109812
  12 C :   -0.040771
  13 H :    0.107744
  14 H :    0.113750
  15 O :   -0.346474
  16 C :    0.014462
  17 C :    0.041790
  18 C :   -0.238077
  19 C :   -0.032061
  20 O :   -0.327564
  21 H :    0.108263
  22 H :    0.104878
  23 O :   -0.434864
  24 H :    0.121724
  25 H :    0.112884
  26 H :    0.101968
  27 H :    0.106000
  28 H :    0.288361

  Mayer bond orders larger than 0.100000
B(  0-C ,  1-C ) :   0.9232 B(  0-C ,  4-O ) :   0.9310 B(  0-C ,  5-H ) :   0.9338
B(  0-C , 15-O ) :   0.8177 B(  1-C ,  2-C ) :   0.9522 B(  1-C ,  6-H ) :   0.9334
B(  1-C ,  7-H ) :   0.9357 B(  2-C ,  3-C ) :   0.9491 B(  2-C ,  8-H ) :   0.9437
B(  2-C ,  9-H ) :   0.9409 B(  3-C ,  4-O ) :   0.8285 B(  3-C , 10-H ) :   0.9281
B(  3-C , 11-H ) :   0.9379 B( 12-C , 13-H ) :   0.9300 B( 12-C , 14-H ) :   0.9159
B( 12-C , 15-O ) :   0.7730 B( 12-C , 16-C ) :   0.8947 B( 16-C , 17-C ) :   0.9125
B( 16-C , 20-O ) :   0.8538 B( 16-C , 21-H ) :   0.9294 B( 17-C , 18-C ) :   0.9026
B( 17-C , 22-H ) :   0.9304 B( 17-C , 23-O ) :   0.9363 B( 18-C , 19-C ) :   0.9398
B( 18-C , 24-H ) :   0.9439 B( 18-C , 25-H ) :   0.9422 B( 19-C , 20-O ) :   0.8311
B( 19-C , 26-H ) :   0.9343 B( 19-C , 27-H ) :   0.9385 B( 23-O , 28-H ) :   0.7223

FINAL SINGLE POINT ENERGY      -652.862409630824

DIPOLE MOMENT
-------------
                                X             Y             Z
Electronic contribution:     -0.92723      -2.06462      -1.47469
Nuclear contribution   :      1.88018       2.54207       1.85507
                        -----------------------------------------
Total Dipole Moment    :      0.95294       0.47744       0.38038
                        -----------------------------------------
Magnitude (a.u.)       :      1.13170
Magnitude (Debye)      :      2.87656

Rotational constants in cm-1:     0.051935     0.014790     0.013289
Rotational constants in MHz :  1556.959423   443.400717   398.409036

                             ****ORCA TERMINATED NORMALLY****
TOTAL RUN TIME: 0 days 0 hours 44 minutes 0 seconds 518 msec
