                         Program Version 4.2.1 -  RELEASE  -
|  1> # Test redundant internal optimization
|  2> #
|  3> ! RKS B3LYP  Opt TightSCF SmallPrint
|  4>
|  5> %basis
|  6>         Basis "6-31G"
|  7> end
|  8>
|  9> %geom
| 10> Constraints
| 11> { D 4  0  19  14  195.0   C } # D for Dihedral angle
| 12> { D 0  19  14  12  210.0   C } # D for Dihedral angle
| 13> { D 0  4  3  2   C } # D for Dihedral angle
| 14> { D 4  3  2  1   C } # D for Dihedral angle
| 15> { D 3  2  1  0   C } # D for Dihedral angle
| 16> { D 2  1  0  4   C } # D for Dihedral angle
| 17> { D 1  0  4  3   C } # D for Dihedral angle
| 18> { D 14  15  16  17   C } # D for Dihedral angle
| 19> { D 15  16  17  12   C } # D for Dihedral angle
| 20> { D 16  17  12  14   C } # D for Dihedral angle
| 21> { D 17  12  14  15   C } # D for Dihedral angle
| 22> { D 12  14  15  16   C } # D for Dihedral angle
| 23> end
| 24> end
| 25>
| 26>
| 27> #%pal
| 28> #nprocs 8
| 29> #end
| 30>
| 31> * xyz 0 1
| 32> C  -21.048   26.222   46.251
| 33> C  -20.361   27.558   45.944
| 34> C  -20.329   28.222   47.341
| 35> C  -20.110   27.022   48.296
| 36> O  -20.473   25.807   47.535
| 37> H  -20.833   25.428   45.533
| 38> H  -19.344   27.382   45.576
| 39> H  -20.898   28.157   45.201
| 40> H  -19.543   28.978   47.434
| 41> H  -21.289   28.710   47.548
| 42> H  -20.733   27.082   49.195
| 43> H  -19.064   26.913   48.597
| 44> C  -24.421   27.316   45.248
| 45> H  -25.114   27.156   44.407
| 46> C  -23.163   26.451   45.109
| 47> C  -22.341   27.257   44.077
| 48> C  -22.677   28.728   44.429
| 49> O  -23.915   28.694   45.239
| 50> H  -24.962   27.181   46.187
| 51> O  -22.472   26.381   46.366
| 52> H  -23.379   25.430   44.776
| 53> H  -21.268   27.049   44.133
| 54> H  -22.674   27.019   43.059
| 55> H  -22.847   29.345   43.541
| 56> H  -21.903   29.198   45.044
| 57> *
| 58>
| 59>                          ****END OF INPUT****
 Total Charge           Charge          ....    0
 Multiplicity           Mult            ....    1
 Number of Electrons    NEL             ....   86
FINAL SINGLE POINT ENERGY      -538.389380068108
FINAL SINGLE POINT ENERGY      -538.420792363742
FINAL SINGLE POINT ENERGY      -538.423067437857
FINAL SINGLE POINT ENERGY      -538.423435288135
FINAL SINGLE POINT ENERGY      -538.423503183835
FINAL SINGLE POINT ENERGY      -538.423518216345
FINAL SINGLE POINT ENERGY      -538.423517942705
                    ***********************HURRAY********************

CARTESIAN COORDINATES (ANGSTROEM)
---------------------------------
  C    -20.853335   26.232108   46.232874
  C    -20.107273   27.557129   46.077089
  C    -20.290645   28.199550   47.477354
  C    -20.248030   26.975317   48.415037
  O    -20.506013   25.796293   47.554326
  H    -20.556549   25.443338   45.533129
  H    -19.048111   27.336862   45.890982
  H    -20.469736   28.189214   45.269840
  H    -19.512738   28.933083   47.707729
  H    -21.266341   28.691851   47.525569
  H    -21.009496   27.006600   49.198560
  H    -19.264462   26.821810   48.869791
  C    -24.331375   27.354456   45.402723
  H    -25.175091   27.139052   44.732173
  C    -23.115029   26.503065   45.037583
  C    -22.551712   27.272687   43.830888
  C    -22.835664   28.755990   44.179240
  O    -23.875071   28.741691   45.234188
  H    -24.631522   27.226547   46.442464
  O    -22.304053   26.382545   46.246044
  H    -23.408177   25.486621   44.737503
  H    -21.497474   27.069032   43.626426
  H    -23.120876   26.969514   42.945380
  H    -23.211716   29.315697   43.314759
  H    -21.970508   29.285945   44.584351

 Multiplicity           Mult            ....    1
 Number of Electrons    NEL             ....   86
 Basis Dimension        Dim             ....  127

ORBITAL ENERGIES
----------------

  NO   OCC          E(Eh)            E(eV)
   0   2.0000     -19.137093      -520.7468
   1   2.0000     -19.135292      -520.6978
   2   2.0000     -19.133761      -520.6561
   3   2.0000     -10.280465      -279.7457
   4   2.0000     -10.243029      -278.7270
   5   2.0000     -10.228760      -278.3387
   6   2.0000     -10.222310      -278.1632
   7   2.0000     -10.221546      -278.1424
   8   2.0000     -10.196668      -277.4654
   9   2.0000     -10.185499      -277.1615
  10   2.0000     -10.182680      -277.0848
  11   2.0000      -1.050741       -28.5921
  12   2.0000      -1.016390       -27.6574
  13   2.0000      -0.985194       -26.8085
  14   2.0000      -0.788836       -21.4653
  15   2.0000      -0.783090       -21.3090
  16   2.0000      -0.748640       -20.3715
  17   2.0000      -0.720510       -19.6061
  18   2.0000      -0.617010       -16.7897
  19   2.0000      -0.604748       -16.4560
  20   2.0000      -0.595534       -16.2053
  21   2.0000      -0.569858       -15.5066
  22   2.0000      -0.517106       -14.0712
  23   2.0000      -0.503908       -13.7120
  24   2.0000      -0.492194       -13.3933
  25   2.0000      -0.485904       -13.2221
  26   2.0000      -0.455266       -12.3884
  27   2.0000      -0.446904       -12.1609
  28   2.0000      -0.420404       -11.4398
  29   2.0000      -0.419795       -11.4232
  30   2.0000      -0.405497       -11.0341
  31   2.0000      -0.390659       -10.6304
  32   2.0000      -0.377394       -10.2694
  33   2.0000      -0.371210       -10.1011
  34   2.0000      -0.364273        -9.9124
  35   2.0000      -0.353534        -9.6202
  36   2.0000      -0.347458        -9.4548
  37   2.0000      -0.311100        -8.4655
  38   2.0000      -0.308598        -8.3974
  39   2.0000      -0.294869        -8.0238
  40   2.0000      -0.257735        -7.0133
  41   2.0000      -0.247005        -6.7213
  42   2.0000      -0.240285        -6.5385
  43   0.0000       0.074637         2.0310
  44   0.0000       0.088741         2.4148
  45   0.0000       0.098363         2.6766
  46   0.0000       0.104730         2.8499
  47   0.0000       0.113084         3.0772

MULLIKEN ATOMIC CHARGES
-----------------------
   0 C :    0.303144
   1 C :   -0.274704
   2 C :   -0.305552
   3 C :    0.000129
   4 O :   -0.500195
   5 H :    0.136383
   6 H :    0.143647
   7 H :    0.138012
   8 H :    0.140104
   9 H :    0.175598
  10 H :    0.155385
  11 H :    0.139892
  12 C :    0.000912
  13 H :    0.124319
  14 C :    0.094392
  15 C :   -0.321580
  16 C :   -0.009952
  17 O :   -0.522305
  18 H :    0.173415
  19 O :   -0.519565
  20 H :    0.133232
  21 H :    0.148616
  22 H :    0.150845
  23 H :    0.140653
  24 H :    0.155175
Sum of atomic charges:   -0.0000000

LOEWDIN ATOMIC CHARGES
----------------------
   0 C :    0.185235
   1 C :   -0.232438
   2 C :   -0.217931
   3 C :   -0.024848
   4 O :   -0.302785
   5 H :    0.094260
   6 H :    0.113463
   7 H :    0.112827
   8 H :    0.113668
   9 H :    0.124827
  10 H :    0.109751
  11 H :    0.101084
  12 C :   -0.032596
  13 H :    0.091201
  14 C :    0.042186
  15 C :   -0.241779
  16 C :   -0.033700
  17 O :   -0.331611
  18 H :    0.126538
  19 O :   -0.334856
  20 H :    0.097394
  21 H :    0.117233
  22 H :    0.120530
  23 H :    0.100122
  24 H :    0.102223

  Mayer bond orders larger than 0.100000
B(  0-C ,  1-C ) :   0.9278 B(  0-C ,  4-O ) :   0.9383 B(  0-C ,  5-H ) :   0.9210
B(  0-C , 19-O ) :   0.8305 B(  1-C ,  2-C ) :   0.9526 B(  1-C ,  6-H ) :   0.9330
B(  1-C ,  7-H ) :   0.9198 B(  2-C ,  3-C ) :   0.9548 B(  2-C ,  8-H ) :   0.9446
B(  2-C ,  9-H ) :   0.9385 B(  3-C ,  4-O ) :   0.8322 B(  3-C , 10-H ) :   0.9347
B(  3-C , 11-H ) :   0.9398 B( 12-C , 13-H ) :   0.9157 B( 12-C , 14-C ) :   0.9270
B( 12-C , 17-O ) :   0.8629 B( 12-C , 18-H ) :   0.9303 B( 14-C , 15-C ) :   0.9303
B( 14-C , 19-O ) :   0.8523 B( 14-C , 20-H ) :   0.9233 B( 15-C , 16-C ) :   0.9408
B( 15-C , 21-H ) :   0.9332 B( 15-C , 22-H ) :   0.9345 B( 16-C , 17-O ) :   0.8640
B( 16-C , 23-H ) :   0.9302 B( 16-C , 24-H ) :   0.9218

FINAL SINGLE POINT ENERGY      -538.423518017941

DIPOLE MOMENT
-------------
                                X             Y             Z
Electronic contribution:     -1.98264      -2.93016       2.08099
Nuclear contribution   :      2.52994       3.15971      -3.10893
                        -----------------------------------------
Total Dipole Moment    :      0.54730       0.22955      -1.02794
                        -----------------------------------------
Magnitude (a.u.)       :      1.18697
Magnitude (Debye)      :      3.01704

Rotational constants in cm-1:     0.070233     0.024098     0.022878
Rotational constants in MHz :  2105.524170   722.429354   685.864938

                             ****ORCA TERMINATED NORMALLY****
TOTAL RUN TIME: 0 days 0 hours 8 minutes 23 seconds 118 msec
