                         Program Version 4.2.0 -  RELEASE  -
|  1> # Test redundant internal optimization
|  2> #
|  3> ! RKS B3LYP  Opt TightSCF SmallPrint
|  4>
|  5> %basis
|  6>         Basis "6-31G"
|  7> end
|  8>
|  9> %geom
| 10> Constraints
| 11> { D 4  0  15  12  0.0   C } # D for Dihedral angle
| 12> { D 0  15  12  16  90.0   C } # D for Dihedral angle
| 13> { D 0  4  3  2   C } # D for Dihedral angle
| 14> { D 4  3  2  1   C } # D for Dihedral angle
| 15> { D 3  2  1  0   C } # D for Dihedral angle
| 16> { D 2  1  0  4   C } # D for Dihedral angle
| 17> { D 1  0  4  3   C } # D for Dihedral angle
| 18> { D 16  20  19  18   C } # D for Dihedral angle
| 19> { D 20  19  18  17   C } # D for Dihedral angle
| 20> { D 19  18  17  16   C } # D for Dihedral angle
| 21> { D 18  17  16  20   C } # D for Dihedral angle
| 22> { D 17  16  20  19   C } # D for Dihedral angle
| 23> { D 15  12  16  20   C } # D for Dihedral angle
| 24> end
| 25> end
| 26>
| 27>
| 28> #%pal
| 29> #nprocs 8
| 30> #end
| 31>
| 32> * xyz 0 1
| 33> C  -21.048   26.222   46.251
| 34> C  -20.361   27.558   45.944
| 35> C  -20.329   28.222   47.341
| 36> C  -20.110   27.022   48.296
| 37> O  -20.473   25.807   47.535
| 38> H  -20.833   25.428   45.533
| 39> H  -19.344   27.382   45.576
| 40> H  -20.898   28.157   45.201
| 41> H  -19.543   28.978   47.434
| 42> H  -21.289   28.710   47.548
| 43> H  -20.733   27.082   49.195
| 44> H  -19.064   26.913   48.597
| 45> C  -23.172   26.101   47.783
| 46> H  -24.194   25.717   47.677
| 47> H  -22.571   25.340   48.298
| 48> O  -22.586   26.394   46.375
| 49> C  -23.216   27.362   48.690
| 50> C  -24.173   28.418   48.128
| 51> C  -25.548   27.863   48.571
| 52> C  -25.241   27.221   49.947
| 53> O  -23.776   27.029   50.004
| 54> H  -22.197   27.717   48.858
| 55> O  -23.897   29.795   48.793
| 56> H  -24.093   28.539   47.042
| 57> H  -26.318   28.638   48.634
| 58> H  -25.894   27.105   47.859
| 59> H  -25.735   26.253   50.078
| 60> H  -25.513   27.873   50.782
| 61> H  -23.973   29.699   49.883
| 62> *
| 63>
| 64>                          ****END OF INPUT****
 Total Charge           Charge          ....    0
 Multiplicity           Mult            ....    1
 Number of Electrons    NEL             ....  102
FINAL SINGLE POINT ENERGY      -652.828387254539
FINAL SINGLE POINT ENERGY      -652.850458499414
FINAL SINGLE POINT ENERGY      -652.857865539694
FINAL SINGLE POINT ENERGY      -652.860236064230
FINAL SINGLE POINT ENERGY      -652.860560568254
FINAL SINGLE POINT ENERGY      -652.860623082099
FINAL SINGLE POINT ENERGY      -652.860630648931
FINAL SINGLE POINT ENERGY      -652.860632553423
                    ***********************HURRAY********************

CARTESIAN COORDINATES (ANGSTROEM)
---------------------------------
  C    -21.101140   26.249364   46.392658
  C    -20.471641   27.575324   45.957462
  C    -20.212032   28.268389   47.319940
  C    -19.843869   27.086878   48.246658
  O    -20.340330   25.862272   47.553397
  H    -20.956648   25.444068   45.666976
  H    -19.530804   27.363081   45.437646
  H    -21.125520   28.149308   45.297336
  H    -19.404635   29.005358   47.263390
  H    -21.110904   28.790147   47.662043
  H    -20.297144   27.140390   49.239855
  H    -18.763235   26.958805   48.356876
  C    -23.181950   26.056235   47.852922
  H    -24.168083   25.660346   47.594495
  H    -22.625721   25.287644   48.398633
  O    -22.547570   26.340910   46.571719
  C    -23.310085   27.293856   48.741859
  C    -24.185488   28.417847   48.172933
  C    -25.607542   27.912274   48.520381
  C    -25.410685   27.202026   49.884067
  O    -23.955022   26.935478   50.012161
  H    -22.322960   27.671604   49.006774
  O    -23.874013   29.690820   48.807405
  H    -24.028912   28.576219   47.106644
  H    -26.313913   28.744912   48.572044
  H    -25.957424   27.213594   47.753270
  H    -25.953148   26.254583   49.953079
  H    -25.698193   27.831664   50.731906
  H    -23.823392   29.561605   49.778471

 Multiplicity           Mult            ....    1
 Number of Electrons    NEL             ....  102
 Basis Dimension        Dim             ....  149

ORBITAL ENERGIES
----------------

  NO   OCC          E(Eh)            E(eV)
   0   2.0000     -19.151652      -521.1429
   1   2.0000     -19.145163      -520.9664
   2   2.0000     -19.140146      -520.8299
   3   2.0000     -19.139838      -520.8215
   4   2.0000     -10.279228      -279.7120
   5   2.0000     -10.237666      -278.5811
   6   2.0000     -10.232588      -278.4429
   7   2.0000     -10.232479      -278.4399
   8   2.0000     -10.230458      -278.3849
   9   2.0000     -10.226781      -278.2849
  10   2.0000     -10.189664      -277.2748
  11   2.0000     -10.189194      -277.2621
  12   2.0000     -10.186502      -277.1888
  13   2.0000      -1.053636       -28.6709
  14   2.0000      -1.036734       -28.2110
  15   2.0000      -1.006823       -27.3970
  16   2.0000      -0.993693       -27.0398
  17   2.0000      -0.790017       -21.4974
  18   2.0000      -0.781460       -21.2646
  19   2.0000      -0.769412       -20.9368
  20   2.0000      -0.733527       -19.9603
  21   2.0000      -0.674840       -18.3633
  22   2.0000      -0.606093       -16.4926
  23   2.0000      -0.602985       -16.4081
  24   2.0000      -0.602001       -16.3813
  25   2.0000      -0.571931       -15.5630
  26   2.0000      -0.526945       -14.3389
  27   2.0000      -0.506932       -13.7943
  28   2.0000      -0.498020       -13.5518
  29   2.0000      -0.491678       -13.3792
  30   2.0000      -0.476709       -12.9719
  31   2.0000      -0.460032       -12.5181
  32   2.0000      -0.454251       -12.3608
  33   2.0000      -0.433167       -11.7871
  34   2.0000      -0.421798       -11.4777
  35   2.0000      -0.415854       -11.3160
  36   2.0000      -0.402710       -10.9583
  37   2.0000      -0.393673       -10.7124
  38   2.0000      -0.375071       -10.2062
  39   2.0000      -0.368092       -10.0163
  40   2.0000      -0.360559        -9.8113
  41   2.0000      -0.359437        -9.7808
  42   2.0000      -0.349812        -9.5189
  43   2.0000      -0.335580        -9.1316
  44   2.0000      -0.328361        -8.9351
  45   2.0000      -0.311983        -8.4895
  46   2.0000      -0.303360        -8.2549
  47   2.0000      -0.273058        -7.4303
  48   2.0000      -0.266187        -7.2433
  49   2.0000      -0.263464        -7.1692
  50   2.0000      -0.236652        -6.4396
  51   0.0000       0.061991         1.6869
  52   0.0000       0.078163         2.1269
  53   0.0000       0.088870         2.4183
  54   0.0000       0.094742         2.5781
  55   0.0000       0.102208         2.7812

MULLIKEN ATOMIC CHARGES
-----------------------
   0 C :    0.309974
   1 C :   -0.263184
   2 C :   -0.326916
   3 C :   -0.025291
   4 O :   -0.512619
   5 H :    0.157349
   6 H :    0.148096
   7 H :    0.159625
   8 H :    0.149397
   9 H :    0.175165
  10 H :    0.155676
  11 H :    0.152779
  12 C :   -0.016950
  13 H :    0.144284
  14 H :    0.171313
  15 O :   -0.543628
  16 C :    0.047150
  17 C :    0.090417
  18 C :   -0.305616
  19 C :   -0.028645
  20 O :   -0.528473
  21 H :    0.155991
  22 O :   -0.607008
  23 H :    0.171737
  24 H :    0.162768
  25 H :    0.152078
  26 H :    0.148484
  27 H :    0.144643
  28 H :    0.361402
Sum of atomic charges:   -0.0000000

LOEWDIN ATOMIC CHARGES
----------------------
   0 C :    0.182788
   1 C :   -0.220154
   2 C :   -0.225594
   3 C :   -0.035250
   4 O :   -0.317373
   5 H :    0.103463
   6 H :    0.116136
   7 H :    0.125273
   8 H :    0.118652
   9 H :    0.120047
  10 H :    0.104870
  11 H :    0.108171
  12 C :   -0.038995
  13 H :    0.108070
  14 H :    0.118988
  15 O :   -0.344697
  16 C :    0.001422
  17 C :    0.034514
  18 C :   -0.241922
  19 C :   -0.037647
  20 O :   -0.330593
  21 H :    0.110080
  22 O :   -0.416737
  23 H :    0.124524
  24 H :    0.126795
  25 H :    0.117308
  26 H :    0.105019
  27 H :    0.101711
  28 H :    0.281132

  Mayer bond orders larger than 0.100000
B(  0-C ,  1-C ) :   0.9283 B(  0-C ,  4-O ) :   0.9141 B(  0-C ,  5-H ) :   0.9317
B(  0-C , 15-O ) :   0.8420 B(  1-C ,  2-C ) :   0.9520 B(  1-C ,  6-H ) :   0.9355
B(  1-C ,  7-H ) :   0.9359 B(  2-C ,  3-C ) :   0.9511 B(  2-C ,  8-H ) :   0.9442
B(  2-C ,  9-H ) :   0.9277 B(  3-C ,  4-O ) :   0.8279 B(  3-C , 10-H ) :   0.9242
B(  3-C , 11-H ) :   0.9380 B( 12-C , 13-H ) :   0.9387 B( 12-C , 14-H ) :   0.9145
B( 12-C , 15-O ) :   0.8357 B( 12-C , 16-C ) :   0.8825 B( 16-C , 17-C ) :   0.9073
B( 16-C , 20-O ) :   0.8358 B( 16-C , 21-H ) :   0.9144 B( 17-C , 18-C ) :   0.9163
B( 17-C , 22-O ) :   0.8794 B( 17-C , 23-H ) :   0.9242 B( 18-C , 19-C ) :   0.9430
B( 18-C , 24-H ) :   0.9371 B( 18-C , 25-H ) :   0.9333 B( 19-C , 20-O ) :   0.8440
B( 19-C , 26-H ) :   0.9349 B( 19-C , 27-H ) :   0.9382 B( 22-O , 28-H ) :   0.7976

FINAL SINGLE POINT ENERGY      -652.860632512788

DIPOLE MOMENT
-------------
                                X             Y             Z
Electronic contribution:     -0.03493      -2.27237       0.49363
Nuclear contribution   :     -0.08351       2.56748      -0.47477
                        -----------------------------------------
Total Dipole Moment    :     -0.11844       0.29511       0.01886
                        -----------------------------------------
Magnitude (a.u.)       :      0.31855
Magnitude (Debye)      :      0.80969

Rotational constants in cm-1:     0.048365     0.016236     0.015305
Rotational constants in MHz :  1449.935593   486.735719   458.843614

                             ****ORCA TERMINATED NORMALLY****
TOTAL RUN TIME: 0 days 1 hours 17 minutes 19 seconds 539 msec
