                         Program Version 4.2.0 -  RELEASE  -
|  1> # Test redundant internal optimization
|  2> #
|  3> ! RKS B3LYP  Opt TightSCF SmallPrint
|  4>
|  5> %basis
|  6>         Basis "6-31G"
|  7> end
|  8>
|  9> %geom
| 10> Constraints
| 11> { D 4  0  15  12  60.0   C } # D for Dihedral angle
| 12> { D 0  15  12  16  75.0   C } # D for Dihedral angle
| 13> { D 0  4  3  2   C } # D for Dihedral angle
| 14> { D 4  3  2  1   C } # D for Dihedral angle
| 15> { D 3  2  1  0   C } # D for Dihedral angle
| 16> { D 2  1  0  4   C } # D for Dihedral angle
| 17> { D 1  0  4  3   C } # D for Dihedral angle
| 18> { D 16  20  19  18   C } # D for Dihedral angle
| 19> { D 20  19  18  17   C } # D for Dihedral angle
| 20> { D 19  18  17  16   C } # D for Dihedral angle
| 21> { D 18  17  16  20   C } # D for Dihedral angle
| 22> { D 17  16  20  19   C } # D for Dihedral angle
| 23> { D 15  12  16  20   C } # D for Dihedral angle
| 24> end
| 25> end
| 26>
| 27>
| 28> #%pal
| 29> #nprocs 8
| 30> #end
| 31>
| 32> * xyz 0 1
| 33> C  -21.048   26.222   46.251
| 34> C  -20.361   27.558   45.944
| 35> C  -20.329   28.222   47.341
| 36> C  -20.110   27.022   48.296
| 37> O  -20.473   25.807   47.535
| 38> H  -20.833   25.428   45.533
| 39> H  -19.344   27.382   45.576
| 40> H  -20.898   28.157   45.201
| 41> H  -19.543   28.978   47.434
| 42> H  -21.289   28.710   47.548
| 43> H  -20.733   27.082   49.195
| 44> H  -19.064   26.913   48.597
| 45> C  -23.051   27.452   47.413
| 46> H  -24.117   27.306   47.626
| 47> H  -22.495   27.337   48.353
| 48> O  -22.586   26.394   46.375
| 49> C  -22.846   28.910   46.918
| 50> C  -23.724   29.211   45.698
| 51> C  -25.101   29.464   46.357
| 52> C  -24.730   30.158   47.692
| 53> O  -23.301   29.865   47.934
| 54> H  -21.781   29.090   46.764
| 55> O  -23.216   30.491   44.979
| 56> H  -23.745   28.393   44.969
| 57> H  -25.761   30.079   45.737
| 58> H  -25.609   28.511   46.544
| 59> H  -25.320   29.786   48.535
| 60> H  -24.832   31.245   47.640
| 61> H  -23.187   31.326   45.690
| 62> *
| 63>
| 64>                          ****END OF INPUT****
 Total Charge           Charge          ....    0
 Multiplicity           Mult            ....    1
 Number of Electrons    NEL             ....  102
FINAL SINGLE POINT ENERGY      -652.750328872583
FINAL SINGLE POINT ENERGY      -652.823485010913
FINAL SINGLE POINT ENERGY      -652.845791752418
FINAL SINGLE POINT ENERGY      -652.851775093587
FINAL SINGLE POINT ENERGY      -652.852602791118
FINAL SINGLE POINT ENERGY      -652.852785128987
FINAL SINGLE POINT ENERGY      -652.852812410954
FINAL SINGLE POINT ENERGY      -652.852822335710
FINAL SINGLE POINT ENERGY      -652.852822734801
                    ***********************HURRAY********************

CARTESIAN COORDINATES (ANGSTROEM)
---------------------------------
  C    -21.169217   26.327096   46.453012
  C    -20.205766   27.399775   45.916691
  C    -19.749190   28.119813   47.226310
  C    -19.708158   26.947651   48.242405
  O    -20.516577   25.857873   47.652014
  H    -21.214197   25.463014   45.787210
  H    -19.358902   26.889783   45.447338
  H    -20.667071   28.069211   45.186018
  H    -18.767200   28.590082   47.114541
  H    -20.446056   28.894809   47.539262
  H    -20.122132   27.210394   49.220508
  H    -18.697104   26.552848   48.378850
  C    -23.215135   27.561976   47.486881
  H    -24.264553   27.256795   47.492691
  H    -22.827814   27.449376   48.508098
  O    -22.582075   26.604362   46.592138
  C    -23.088133   29.033281   47.074428
  C    -23.771726   29.386917   45.745004
  C    -25.256480   29.502712   46.177297
  C    -25.165229   30.100212   47.604225
  O    -23.772387   29.870409   48.068289
  H    -22.052695   29.361965   47.059737
  O    -23.253795   30.636421   45.209346
  H    -23.604279   28.641235   44.968427
  H    -25.810283   30.140635   45.483544
  H    -25.729180   28.515410   46.184630
  H    -25.856026   29.628881   48.309649
  H    -25.333729   31.181532   47.619784
  H    -23.221909   31.304531   45.926673

 Multiplicity           Mult            ....    1
 Number of Electrons    NEL             ....  102
 Basis Dimension        Dim             ....  149

ORBITAL ENERGIES
----------------

  NO   OCC          E(Eh)            E(eV)
   0   2.0000     -19.149409      -521.0819
   1   2.0000     -19.143890      -520.9317
   2   2.0000     -19.142931      -520.9056
   3   2.0000     -19.141631      -520.8703
   4   2.0000     -10.280012      -279.7334
   5   2.0000     -10.241094      -278.6743
   6   2.0000     -10.235844      -278.5315
   7   2.0000     -10.235221      -278.5145
   8   2.0000     -10.233285      -278.4619
   9   2.0000     -10.229277      -278.3528
  10   2.0000     -10.192742      -277.3586
  11   2.0000     -10.191679      -277.3297
  12   2.0000     -10.191407      -277.3223
  13   2.0000      -1.050783       -28.5933
  14   2.0000      -1.039911       -28.2974
  15   2.0000      -1.009652       -27.4740
  16   2.0000      -0.996359       -27.1123
  17   2.0000      -0.788068       -21.4444
  18   2.0000      -0.785031       -21.3618
  19   2.0000      -0.773087       -21.0368
  20   2.0000      -0.736521       -20.0418
  21   2.0000      -0.680747       -18.5241
  22   2.0000      -0.610556       -16.6141
  23   2.0000      -0.606888       -16.5143
  24   2.0000      -0.603356       -16.4182
  25   2.0000      -0.573777       -15.6133
  26   2.0000      -0.530108       -14.4250
  27   2.0000      -0.504706       -13.7337
  28   2.0000      -0.502829       -13.6827
  29   2.0000      -0.492635       -13.4053
  30   2.0000      -0.475442       -12.9374
  31   2.0000      -0.463876       -12.6227
  32   2.0000      -0.452281       -12.3072
  33   2.0000      -0.435684       -11.8556
  34   2.0000      -0.431546       -11.7430
  35   2.0000      -0.416467       -11.3326
  36   2.0000      -0.410809       -11.1787
  37   2.0000      -0.396705       -10.7949
  38   2.0000      -0.384692       -10.4680
  39   2.0000      -0.371658       -10.1133
  40   2.0000      -0.360780        -9.8173
  41   2.0000      -0.356601        -9.7036
  42   2.0000      -0.350189        -9.5291
  43   2.0000      -0.336363        -9.1529
  44   2.0000      -0.316076        -8.6009
  45   2.0000      -0.313879        -8.5411
  46   2.0000      -0.301688        -8.2094
  47   2.0000      -0.278585        -7.5807
  48   2.0000      -0.269671        -7.3381
  49   2.0000      -0.257457        -7.0058
  50   2.0000      -0.242249        -6.5919
  51   0.0000       0.059766         1.6263
  52   0.0000       0.068309         1.8588
  53   0.0000       0.083424         2.2701
  54   0.0000       0.095648         2.6027
  55   0.0000       0.099350         2.7035

MULLIKEN ATOMIC CHARGES
-----------------------
   0 C :    0.311664
   1 C :   -0.284916
   2 C :   -0.320870
   3 C :   -0.012567
   4 O :   -0.507809
   5 H :    0.167339
   6 H :    0.157303
   7 H :    0.159672
   8 H :    0.147466
   9 H :    0.157827
  10 H :    0.147114
  11 H :    0.148216
  12 C :   -0.015414
  13 H :    0.155701
  14 H :    0.152490
  15 O :   -0.531241
  16 C :    0.037954
  17 C :    0.083223
  18 C :   -0.307713
  19 C :   -0.032512
  20 O :   -0.525270
  21 H :    0.164368
  22 O :   -0.602825
  23 H :    0.171735
  24 H :    0.165065
  25 H :    0.154107
  26 H :    0.150557
  27 H :    0.147736
  28 H :    0.361602
Sum of atomic charges:   -0.0000000

LOEWDIN ATOMIC CHARGES
----------------------
   0 C :    0.178731
   1 C :   -0.231064
   2 C :   -0.225742
   3 C :   -0.033038
   4 O :   -0.318922
   5 H :    0.113269
   6 H :    0.123969
   7 H :    0.122972
   8 H :    0.117262
   9 H :    0.111034
  10 H :    0.103119
  11 H :    0.104291
  12 C :   -0.038384
  13 H :    0.114667
  14 H :    0.108356
  15 O :   -0.327667
  16 C :   -0.001464
  17 C :    0.034622
  18 C :   -0.242989
  19 C :   -0.038901
  20 O :   -0.330658
  21 H :    0.111017
  22 O :   -0.415209
  23 H :    0.124194
  24 H :    0.127829
  25 H :    0.118156
  26 H :    0.106075
  27 H :    0.103141
  28 H :    0.281335

  Mayer bond orders larger than 0.100000
B(  0-C ,  1-C ) :   0.9125 B(  0-C ,  4-O ) :   0.9019 B(  0-C ,  5-H ) :   0.9363
B(  0-C , 15-O ) :   0.8911 B(  1-C ,  2-C ) :   0.9564 B(  1-C ,  6-H ) :   0.9325
B(  1-C ,  7-H ) :   0.9327 B(  2-C ,  3-C ) :   0.9456 B(  2-C ,  8-H ) :   0.9447
B(  2-C ,  9-H ) :   0.9225 B(  3-C ,  4-O ) :   0.8422 B(  3-C , 10-H ) :   0.9337
B(  3-C , 11-H ) :   0.9390 B( 12-C , 13-H ) :   0.9399 B( 12-C , 14-H ) :   0.9185
B( 12-C , 15-O ) :   0.8385 B( 12-C , 16-C ) :   0.8739 B( 16-C , 17-C ) :   0.9054
B( 16-C , 20-O ) :   0.8408 B( 16-C , 21-H ) :   0.8998 B( 17-C , 18-C ) :   0.9160
B( 17-C , 22-O ) :   0.8894 B( 17-C , 23-H ) :   0.9250 B( 18-C , 19-C ) :   0.9431
B( 18-C , 24-H ) :   0.9367 B( 18-C , 25-H ) :   0.9323 B( 19-C , 20-O ) :   0.8420
B( 19-C , 26-H ) :   0.9347 B( 19-C , 27-H ) :   0.9379 B( 22-O , 28-H ) :   0.7972

FINAL SINGLE POINT ENERGY      -652.852821003163

DIPOLE MOMENT
-------------
                                X             Y             Z
Electronic contribution:     -0.81070      -1.93259      -0.02935
Nuclear contribution   :      0.76998       2.61616       0.11774
                        -----------------------------------------
Total Dipole Moment    :     -0.04072       0.68357       0.08839
                        -----------------------------------------
Magnitude (a.u.)       :      0.69046
Magnitude (Debye)      :      1.75501

Rotational constants in cm-1:     0.050715     0.014901     0.014378
Rotational constants in MHz :  1520.397492   446.723388   431.036149

                             ****ORCA TERMINATED NORMALLY****
TOTAL RUN TIME: 0 days 0 hours 30 minutes 29 seconds 117 msec
