                         Program Version 4.2.0 -  RELEASE  -
|  1> # Test redundant internal optimization
|  2> #
|  3> ! RKS B3LYP  Opt TightSCF SmallPrint
|  4>
|  5> %basis
|  6>         Basis "6-31G"
|  7> end
|  8>
|  9> %geom
| 10> Constraints
| 11> { D 4  0  15  12  240.0   C } # D for Dihedral angle
| 12> { D 0  15  12  16  225.0   C } # D for Dihedral angle
| 13> { D 0  4  3  2   C } # D for Dihedral angle
| 14> { D 4  3  2  1   C } # D for Dihedral angle
| 15> { D 3  2  1  0   C } # D for Dihedral angle
| 16> { D 2  1  0  4   C } # D for Dihedral angle
| 17> { D 1  0  4  3   C } # D for Dihedral angle
| 18> { D 16  20  19  18   C } # D for Dihedral angle
| 19> { D 20  19  18  17   C } # D for Dihedral angle
| 20> { D 19  18  17  16   C } # D for Dihedral angle
| 21> { D 18  17  16  20   C } # D for Dihedral angle
| 22> { D 17  16  20  19   C } # D for Dihedral angle
| 23> { D 15  12  16  20   C } # D for Dihedral angle
| 24> end
| 25> end
| 26>
| 27>
| 28> #%pal
| 29> #nprocs 8
| 30> #end
| 31>
| 32> * xyz 0 1
| 33> C  -21.048   26.222   46.251
| 34> C  -20.361   27.558   45.944
| 35> C  -20.329   28.222   47.341
| 36> C  -20.110   27.022   48.296
| 37> O  -20.473   25.807   47.535
| 38> H  -20.833   25.428   45.533
| 39> H  -19.344   27.382   45.576
| 40> H  -20.898   28.157   45.201
| 41> H  -19.543   28.978   47.434
| 42> H  -21.289   28.710   47.548
| 43> H  -20.733   27.082   49.195
| 44> H  -19.064   26.913   48.597
| 45> C  -23.430   25.483   45.442
| 46> H  -22.779   25.054   44.670
| 47> H  -23.875   24.657   46.012
| 48> O  -22.586   26.394   46.375
| 49> C  -24.585   26.248   44.739
| 50> C  -25.488   26.952   45.758
| 51> C  -24.655   28.211   46.098
| 52> C  -23.972   28.556   44.751
| 53> O  -24.050   27.338   43.916
| 54> H  -25.108   25.567   44.066
| 55> O  -26.833   27.350   45.092
| 56> H  -25.707   26.337   46.637
| 57> H  -25.266   29.035   46.480
| 58> H  -23.904   27.971   46.861
| 59> H  -22.922   28.842   44.874
| 60> H  -24.494   29.351   44.211
| 61> H  -26.639   27.967   44.208
| 62> *
| 63>
| 64>                          ****END OF INPUT****
 Total Charge           Charge          ....    0
 Multiplicity           Mult            ....    1
 Number of Electrons    NEL             ....  102
FINAL SINGLE POINT ENERGY      -652.835955429756
FINAL SINGLE POINT ENERGY      -652.857966527710
FINAL SINGLE POINT ENERGY      -652.861962772757
FINAL SINGLE POINT ENERGY      -652.863403304781
FINAL SINGLE POINT ENERGY      -652.863511068722
FINAL SINGLE POINT ENERGY      -652.863526733352
                    ***********************HURRAY********************

CARTESIAN COORDINATES (ANGSTROEM)
---------------------------------
  C    -21.056457   26.168816   46.212501
  C    -20.392632   27.514490   45.922978
  C    -20.376276   28.171589   47.324238
  C    -20.142001   26.968781   48.265191
  O    -20.489397   25.762833   47.472491
  H    -20.838227   25.376843   45.490485
  H    -19.370742   27.341749   45.564861
  H    -20.935930   28.088853   45.170364
  H    -19.598678   28.935085   47.422969
  H    -21.344573   28.639379   47.528047
  H    -20.769733   26.992840   49.159307
  H    -19.094379   26.859160   48.560743
  C    -23.342376   25.513002   45.486396
  H    -22.739562   25.065311   44.685560
  H    -23.775608   24.701550   46.087815
  O    -22.494237   26.340213   46.331759
  C    -24.464812   26.317490   44.836046
  C    -25.462559   27.013153   45.772524
  C    -24.725268   28.339897   46.089841
  C    -23.994845   28.661402   44.763801
  O    -23.955205   27.397224   43.988132
  H    -25.006131   25.629805   44.174000
  O    -26.733249   27.233226   45.096096
  H    -25.708633   26.432537   46.661941
  H    -25.434604   29.117380   46.386228
  H    -24.006386   28.168386   46.893458
  H    -22.973175   29.014094   44.924464
  H    -24.529878   29.394762   44.151031
  H    -26.562449   27.634150   44.217736

 Multiplicity           Mult            ....    1
 Number of Electrons    NEL             ....  102
 Basis Dimension        Dim             ....  149

ORBITAL ENERGIES
----------------

  NO   OCC          E(Eh)            E(eV)
   0   2.0000     -19.146614      -521.0058
   1   2.0000     -19.142194      -520.8856
   2   2.0000     -19.140675      -520.8443
   3   2.0000     -19.135542      -520.7046
   4   2.0000     -10.282757      -279.8080
   5   2.0000     -10.237483      -278.5761
   6   2.0000     -10.236085      -278.5380
   7   2.0000     -10.235137      -278.5122
   8   2.0000     -10.227194      -278.2961
   9   2.0000     -10.226582      -278.2794
  10   2.0000     -10.188787      -277.2510
  11   2.0000     -10.186883      -277.1992
  12   2.0000     -10.178823      -276.9799
  13   2.0000      -1.055109       -28.7110
  14   2.0000      -1.034156       -28.1408
  15   2.0000      -1.005010       -27.3477
  16   2.0000      -0.995565       -27.0907
  17   2.0000      -0.790223       -21.5031
  18   2.0000      -0.777897       -21.1677
  19   2.0000      -0.766849       -20.8670
  20   2.0000      -0.732964       -19.9450
  21   2.0000      -0.676678       -18.4134
  22   2.0000      -0.601124       -16.3574
  23   2.0000      -0.599272       -16.3070
  24   2.0000      -0.597874       -16.2690
  25   2.0000      -0.582414       -15.8483
  26   2.0000      -0.526744       -14.3334
  27   2.0000      -0.506732       -13.7889
  28   2.0000      -0.494717       -13.4619
  29   2.0000      -0.490482       -13.3467
  30   2.0000      -0.475836       -12.9482
  31   2.0000      -0.462228       -12.5779
  32   2.0000      -0.449543       -12.2327
  33   2.0000      -0.438384       -11.9290
  34   2.0000      -0.426370       -11.6021
  35   2.0000      -0.410416       -11.1680
  36   2.0000      -0.400678       -10.9030
  37   2.0000      -0.389674       -10.6036
  38   2.0000      -0.378886       -10.3100
  39   2.0000      -0.368541       -10.0285
  40   2.0000      -0.359387        -9.7794
  41   2.0000      -0.357220        -9.7205
  42   2.0000      -0.351938        -9.5767
  43   2.0000      -0.329213        -8.9583
  44   2.0000      -0.318308        -8.6616
  45   2.0000      -0.312615        -8.5067
  46   2.0000      -0.302449        -8.2300
  47   2.0000      -0.273048        -7.4300
  48   2.0000      -0.265915        -7.2359
  49   2.0000      -0.254864        -6.9352
  50   2.0000      -0.241670        -6.5762
  51   0.0000       0.060974         1.6592
  52   0.0000       0.078928         2.1477
  53   0.0000       0.086868         2.3638
  54   0.0000       0.100785         2.7425
  55   0.0000       0.104663         2.8480

MULLIKEN ATOMIC CHARGES
-----------------------
   0 C :    0.291524
   1 C :   -0.263125
   2 C :   -0.306169
   3 C :   -0.000319
   4 O :   -0.502060
   5 H :    0.143900
   6 H :    0.145647
   7 H :    0.159731
   8 H :    0.143552
   9 H :    0.157926
  10 H :    0.150517
  11 H :    0.142616
  12 C :    0.002695
  13 H :    0.140137
  14 H :    0.141219
  15 O :   -0.525427
  16 C :    0.069096
  17 C :    0.076803
  18 C :   -0.289828
  19 C :   -0.028897
  20 O :   -0.530210
  21 H :    0.156184
  22 O :   -0.602623
  23 H :    0.155678
  24 H :    0.149357
  25 H :    0.176725
  26 H :    0.144210
  27 H :    0.138924
  28 H :    0.362218
Sum of atomic charges:    0.0000000

LOEWDIN ATOMIC CHARGES
----------------------
   0 C :    0.179580
   1 C :   -0.221488
   2 C :   -0.217645
   3 C :   -0.026285
   4 O :   -0.315572
   5 H :    0.100087
   6 H :    0.114613
   7 H :    0.121230
   8 H :    0.114753
   9 H :    0.114926
  10 H :    0.107348
  11 H :    0.102734
  12 C :   -0.031949
  13 H :    0.103598
  14 H :    0.103561
  15 O :   -0.335389
  16 C :    0.010296
  17 C :    0.039348
  18 C :   -0.241408
  19 C :   -0.034623
  20 O :   -0.333551
  21 H :    0.116307
  22 O :   -0.416845
  23 H :    0.118116
  24 H :    0.119237
  25 H :    0.129292
  26 H :    0.101181
  27 H :    0.097114
  28 H :    0.281434

  Mayer bond orders larger than 0.100000
B(  0-C ,  1-C ) :   0.9411 B(  0-C ,  4-O ) :   0.9327 B(  0-C ,  5-H ) :   0.9175
B(  0-C , 15-O ) :   0.8357 B(  1-C ,  2-C ) :   0.9571 B(  1-C ,  6-H ) :   0.9359
B(  1-C ,  7-H ) :   0.9293 B(  2-C ,  3-C ) :   0.9534 B(  2-C ,  8-H ) :   0.9449
B(  2-C ,  9-H ) :   0.9429 B(  3-C ,  4-O ) :   0.8388 B(  3-C , 10-H ) :   0.9349
B(  3-C , 11-H ) :   0.9396 B( 12-C , 13-H ) :   0.9178 B( 12-C , 14-H ) :   0.9160
B( 12-C , 15-O ) :   0.8555 B( 12-C , 16-C ) :   0.8995 B( 16-C , 17-C ) :   0.9102
B( 16-C , 20-O ) :   0.8667 B( 16-C , 21-H ) :   0.9193 B( 17-C , 18-C ) :   0.9247
B( 17-C , 22-O ) :   0.8929 B( 17-C , 23-H ) :   0.9350 B( 18-C , 19-C ) :   0.9462
B( 18-C , 24-H ) :   0.9370 B( 18-C , 25-H ) :   0.9177 B( 19-C , 20-O ) :   0.8450
B( 19-C , 26-H ) :   0.9261 B( 19-C , 27-H ) :   0.9370 B( 22-O , 28-H ) :   0.7961

FINAL SINGLE POINT ENERGY      -652.863526832049

DIPOLE MOMENT
-------------
                                X             Y             Z
Electronic contribution:     -3.00786      -3.96929      -1.74199
Nuclear contribution   :      3.74534       4.62235       1.68490
                        -----------------------------------------
Total Dipole Moment    :      0.73748       0.65306      -0.05709
                        -----------------------------------------
Magnitude (a.u.)       :      0.98672
Magnitude (Debye)      :      2.50805

Rotational constants in cm-1:     0.055939     0.014440     0.013739
Rotational constants in MHz :  1677.008904   432.898471   411.888816

                             ****ORCA TERMINATED NORMALLY****
TOTAL RUN TIME: 0 days 0 hours 50 minutes 50 seconds 650 msec
