                         Program Version 4.2.0 -  RELEASE  -
|  1> # Test redundant internal optimization
|  2> #
|  3> ! RKS B3LYP  Opt TightSCF SmallPrint
|  4>
|  5> %basis
|  6>         Basis "6-31G"
|  7> end
|  8>
|  9> %geom
| 10> Constraints
| 11> { D 4  0  15  12  90.0   C } # D for Dihedral angle
| 12> { D 0  15  12  16  195.0   C } # D for Dihedral angle
| 13> { D 0  4  3  2   C } # D for Dihedral angle
| 14> { D 4  3  2  1   C } # D for Dihedral angle
| 15> { D 3  2  1  0   C } # D for Dihedral angle
| 16> { D 2  1  0  4   C } # D for Dihedral angle
| 17> { D 1  0  4  3   C } # D for Dihedral angle
| 18> { D 16  20  19  18   C } # D for Dihedral angle
| 19> { D 20  19  18  17   C } # D for Dihedral angle
| 20> { D 19  18  17  16   C } # D for Dihedral angle
| 21> { D 18  17  16  20   C } # D for Dihedral angle
| 22> { D 17  16  20  19   C } # D for Dihedral angle
| 23> { D 15  12  16  20   C } # D for Dihedral angle
| 24> end
| 25> end
| 26>
| 27>
| 28> #%pal
| 29> #nprocs 8
| 30> #end
| 31>
| 32> * xyz 0 1
| 33> C  -21.048   26.222   46.251
| 34> C  -20.361   27.558   45.944
| 35> C  -20.329   28.222   47.341
| 36> C  -20.110   27.022   48.296
| 37> O  -20.473   25.807   47.535
| 38> H  -20.833   25.428   45.533
| 39> H  -19.344   27.382   45.576
| 40> H  -20.898   28.157   45.201
| 41> H  -19.543   28.978   47.434
| 42> H  -21.289   28.710   47.548
| 43> H  -20.733   27.082   49.195
| 44> H  -19.064   26.913   48.597
| 45> C  -23.061   27.816   46.783
| 46> H  -22.434   28.185   47.604
| 47> H  -22.964   28.510   45.939
| 48> O  -22.586   26.394   46.375
| 49> C  -24.543   27.843   47.250
| 50> C  -25.473   27.255   46.183
| 51> C  -25.274   25.735   46.396
| 52> C  -25.079   25.617   47.929
| 53> O  -24.730   26.970   48.414
| 54> H  -24.800   28.856   47.565
| 55> O  -26.943   27.660   46.477
| 56> H  -25.222   27.577   45.167
| 57> H  -26.119   25.140   46.036
| 58> H  -24.375   25.395   45.866
| 59> H  -24.278   24.921   48.198
| 60> H  -25.997   25.318   48.444
| 61> H  -27.217   27.346   47.490
| 62> *
| 63>
| 64>                          ****END OF INPUT****
 Total Charge           Charge          ....    0
 Multiplicity           Mult            ....    1
 Number of Electrons    NEL             ....  102
FINAL SINGLE POINT ENERGY      -652.805626985589
FINAL SINGLE POINT ENERGY      -652.836945636640
FINAL SINGLE POINT ENERGY      -652.853795872693
FINAL SINGLE POINT ENERGY      -652.856928151065
FINAL SINGLE POINT ENERGY      -652.857323048055
FINAL SINGLE POINT ENERGY      -652.857394015266
FINAL SINGLE POINT ENERGY      -652.857403031435
FINAL SINGLE POINT ENERGY      -652.857402820034
                    ***********************HURRAY********************

CARTESIAN COORDINATES (ANGSTROEM)
---------------------------------
  C    -21.194808   26.389988   46.420982
  C    -20.289490   27.540128   45.958531
  C    -19.980933   28.271020   47.298441
  C    -19.911305   27.098438   48.310239
  O    -20.590741   25.952506   47.657356
  H    -21.153446   25.520721   45.762589
  H    -19.376434   27.111047   45.534441
  H    -20.752914   28.183567   45.205129
  H    -19.037588   28.824656   47.255447
  H    -20.767634   28.983747   47.554918
  H    -20.412108   27.315382   49.258000
  H    -18.883367   26.783991   48.511907
  C    -23.181207   27.916030   46.870381
  H    -22.679774   28.323645   47.754264
  H    -23.080947   28.631068   46.040387
  O    -22.616796   26.625093   46.512594
  C    -24.655663   27.749040   47.241096
  C    -25.583809   27.176539   46.160938
  C    -25.362972   25.648658   46.329448
  C    -25.159406   25.493496   47.856852
  O    -24.825474   26.844082   48.374690
  H    -25.021664   28.732285   47.560596
  O    -26.962395   27.571967   46.412276
  H    -25.363612   27.536489   45.155470
  H    -26.225773   25.090296   45.954548
  H    -24.463740   25.348738   45.790625
  H    -24.336118   24.817731   48.099670
  H    -26.064834   25.166546   48.379076
  H    -27.185045   27.372104   47.346107

 Multiplicity           Mult            ....    1
 Number of Electrons    NEL             ....  102
 Basis Dimension        Dim             ....  149

ORBITAL ENERGIES
----------------

  NO   OCC          E(Eh)            E(eV)
   0   2.0000     -19.149463      -521.0834
   1   2.0000     -19.142046      -520.8816
   2   2.0000     -19.134083      -520.6649
   3   2.0000     -19.132675      -520.6266
   4   2.0000     -10.283153      -279.8188
   5   2.0000     -10.236622      -278.5526
   6   2.0000     -10.233652      -278.4718
   7   2.0000     -10.232711      -278.4462
   8   2.0000     -10.230182      -278.3774
   9   2.0000     -10.217245      -278.0254
  10   2.0000     -10.197580      -277.4903
  11   2.0000     -10.196608      -277.4638
  12   2.0000     -10.171712      -276.7864
  13   2.0000      -1.055022       -28.7086
  14   2.0000      -1.029414       -28.0118
  15   2.0000      -1.003357       -27.3027
  16   2.0000      -0.994806       -27.0700
  17   2.0000      -0.792678       -21.5699
  18   2.0000      -0.779889       -21.2219
  19   2.0000      -0.761898       -20.7323
  20   2.0000      -0.734384       -19.9836
  21   2.0000      -0.678119       -18.4526
  22   2.0000      -0.608962       -16.5707
  23   2.0000      -0.602775       -16.4023
  24   2.0000      -0.593252       -16.1432
  25   2.0000      -0.568353       -15.4657
  26   2.0000      -0.523969       -14.2579
  27   2.0000      -0.510787       -13.8992
  28   2.0000      -0.502064       -13.6618
  29   2.0000      -0.482952       -13.1418
  30   2.0000      -0.475269       -12.9327
  31   2.0000      -0.457790       -12.4571
  32   2.0000      -0.448330       -12.1997
  33   2.0000      -0.434500       -11.8233
  34   2.0000      -0.426329       -11.6010
  35   2.0000      -0.417041       -11.3483
  36   2.0000      -0.403887       -10.9903
  37   2.0000      -0.387705       -10.5500
  38   2.0000      -0.382996       -10.4219
  39   2.0000      -0.364714        -9.9244
  40   2.0000      -0.363267        -9.8850
  41   2.0000      -0.358310        -9.7501
  42   2.0000      -0.349675        -9.5151
  43   2.0000      -0.325722        -8.8633
  44   2.0000      -0.316013        -8.5992
  45   2.0000      -0.304090        -8.2747
  46   2.0000      -0.294589        -8.0162
  47   2.0000      -0.275163        -7.4876
  48   2.0000      -0.262243        -7.1360
  49   2.0000      -0.256357        -6.9758
  50   2.0000      -0.239217        -6.5094
  51   0.0000       0.066162         1.8004
  52   0.0000       0.076541         2.0828
  53   0.0000       0.088594         2.4108
  54   0.0000       0.103486         2.8160
  55   0.0000       0.107934         2.9370

MULLIKEN ATOMIC CHARGES
-----------------------
   0 C :    0.309587
   1 C :   -0.290184
   2 C :   -0.313596
   3 C :   -0.009089
   4 O :   -0.497232
   5 H :    0.162483
   6 H :    0.159526
   7 H :    0.147568
   8 H :    0.146844
   9 H :    0.148713
  10 H :    0.153011
  11 H :    0.147094
  12 C :    0.006346
  13 H :    0.146620
  14 H :    0.125534
  15 O :   -0.528942
  16 C :    0.067323
  17 C :    0.078603
  18 C :   -0.285807
  19 C :   -0.021816
  20 O :   -0.525306
  21 H :    0.152139
  22 O :   -0.604602
  23 H :    0.145785
  24 H :    0.145298
  25 H :    0.176615
  26 H :    0.162543
  27 H :    0.132578
  28 H :    0.362365
Sum of atomic charges:   -0.0000000

LOEWDIN ATOMIC CHARGES
----------------------
   0 C :    0.175380
   1 C :   -0.229719
   2 C :   -0.223499
   3 C :   -0.032258
   4 O :   -0.317314
   5 H :    0.110431
   6 H :    0.124487
   7 H :    0.116725
   8 H :    0.116389
   9 H :    0.109412
  10 H :    0.107320
  11 H :    0.104918
  12 C :   -0.039107
  13 H :    0.103890
  14 H :    0.093532
  15 O :   -0.321088
  16 C :    0.016007
  17 C :    0.039732
  18 C :   -0.241314
  19 C :   -0.033332
  20 O :   -0.328753
  21 H :    0.114273
  22 O :   -0.418345
  23 H :    0.113410
  24 H :    0.116797
  25 H :    0.131458
  26 H :    0.113950
  27 H :    0.094793
  28 H :    0.281826

  Mayer bond orders larger than 0.100000
B(  0-C ,  1-C ) :   0.9245 B(  0-C ,  4-O ) :   0.9125 B(  0-C ,  5-H ) :   0.9363
B(  0-C , 15-O ) :   0.8878 B(  1-C ,  2-C ) :   0.9532 B(  1-C ,  6-H ) :   0.9351
B(  1-C ,  7-H ) :   0.9351 B(  2-C ,  3-C ) :   0.9477 B(  2-C ,  8-H ) :   0.9449
B(  2-C ,  9-H ) :   0.9394 B(  3-C ,  4-O ) :   0.8450 B(  3-C , 10-H ) :   0.9331
B(  3-C , 11-H ) :   0.9388 B( 12-C , 13-H ) :   0.9064 B( 12-C , 14-H ) :   0.9104
B( 12-C , 15-O ) :   0.8406 B( 12-C , 16-C ) :   0.8995 B( 16-C , 17-C ) :   0.9075
B( 16-C , 20-O ) :   0.8819 B( 16-C , 21-H ) :   0.9228 B( 17-C , 18-C ) :   0.9252
B( 17-C , 22-O ) :   0.8902 B( 17-C , 23-H ) :   0.9373 B( 18-C , 19-C ) :   0.9457
B( 18-C , 24-H ) :   0.9375 B( 18-C , 25-H ) :   0.9184 B( 19-C , 20-O ) :   0.8340
B( 19-C , 26-H ) :   0.9323 B( 19-C , 27-H ) :   0.9372 B( 22-O , 28-H ) :   0.7963

FINAL SINGLE POINT ENERGY      -652.857391244380

DIPOLE MOMENT
-------------
                                X             Y             Z
Electronic contribution:     -3.82779      -1.85037       1.02772
Nuclear contribution   :      4.91632       2.49546      -1.39728
                        -----------------------------------------
Total Dipole Moment    :      1.08854       0.64509      -0.36956
                        -----------------------------------------
Magnitude (a.u.)       :      1.31819
Magnitude (Debye)      :      3.35058

Rotational constants in cm-1:     0.060170     0.013755     0.013249
Rotational constants in MHz :  1803.838860   412.365138   397.201131

                             ****ORCA TERMINATED NORMALLY****
TOTAL RUN TIME: 0 days 0 hours 23 minutes 47 seconds 829 msec
