                         Program Version 4.2.0 -  RELEASE  -
|  1> # Test redundant internal optimization
|  2> #
|  3> ! RKS B3LYP  Opt TightSCF SmallPrint
|  4>
|  5> %basis
|  6>         Basis "6-31G"
|  7> end
|  8>
|  9> %geom
| 10> Constraints
| 11> { D 4  0  15  12  225.0   C } # D for Dihedral angle
| 12> { D 0  15  12  16  45.0   C } # D for Dihedral angle
| 13> { D 0  4  3  2   C } # D for Dihedral angle
| 14> { D 4  3  2  1   C } # D for Dihedral angle
| 15> { D 3  2  1  0   C } # D for Dihedral angle
| 16> { D 2  1  0  4   C } # D for Dihedral angle
| 17> { D 1  0  4  3   C } # D for Dihedral angle
| 18> { D 16  20  19  18   C } # D for Dihedral angle
| 19> { D 20  19  18  17   C } # D for Dihedral angle
| 20> { D 19  18  17  16   C } # D for Dihedral angle
| 21> { D 18  17  16  20   C } # D for Dihedral angle
| 22> { D 17  16  20  19   C } # D for Dihedral angle
| 23> { D 15  12  16  20   C } # D for Dihedral angle
| 24> end
| 25> end
| 26>
| 27>
| 28> #%pal
| 29> #nprocs 8
| 30> #end
| 31>
| 32> * xyz 0 1
| 33> C  -21.048   26.222   46.251
| 34> C  -20.361   27.558   45.944
| 35> C  -20.329   28.222   47.341
| 36> C  -20.110   27.022   48.296
| 37> O  -20.473   25.807   47.535
| 38> H  -20.833   25.428   45.533
| 39> H  -19.344   27.382   45.576
| 40> H  -20.898   28.157   45.201
| 41> H  -19.543   28.978   47.434
| 42> H  -21.289   28.710   47.548
| 43> H  -20.733   27.082   49.195
| 44> H  -19.064   26.913   48.597
| 45> C  -23.415   25.773   45.218
| 46> H  -24.469   25.716   45.518
| 47> H  -23.349   26.399   44.319
| 48> O  -22.586   26.394   46.375
| 49> C  -22.938   24.344   44.836
| 50> C  -23.156   23.358   45.989
| 51> C  -24.668   23.054   45.860
| 52> C  -24.903   23.087   44.329
| 53> O  -23.753   23.807   43.742
| 54> H  -21.910   24.396   44.473
| 55> O  -22.316   22.073   45.756
| 56> H  -22.887   23.772   46.967
| 57> H  -24.947   22.094   46.305
| 58> H  -25.252   23.837   46.358
| 59> H  -25.828   23.606   44.058
| 60> H  -24.917   22.087   43.888
| 61> H  -22.569   21.639   44.781
| 62> *
| 63>
| 64>                          ****END OF INPUT****
 Total Charge           Charge          ....    0
 Multiplicity           Mult            ....    1
 Number of Electrons    NEL             ....  102
FINAL SINGLE POINT ENERGY      -652.832324582913
FINAL SINGLE POINT ENERGY      -652.854516987701
FINAL SINGLE POINT ENERGY      -652.858359952533
FINAL SINGLE POINT ENERGY      -652.859024430633
FINAL SINGLE POINT ENERGY      -652.859117585522
FINAL SINGLE POINT ENERGY      -652.859129527124
                    ***********************HURRAY********************

CARTESIAN COORDINATES (ANGSTROEM)
---------------------------------
  C    -20.973599   26.176629   46.214967
  C    -20.315165   27.527673   45.939068
  C    -20.441323   28.230701   47.311720
  C    -20.268628   27.067938   48.312693
  O    -20.516200   25.826084   47.534500
  H    -20.674302   25.367507   45.548415
  H    -19.262323   27.375050   45.672814
  H    -20.806676   28.073607   45.129577
  H    -19.694692   29.017885   47.452505
  H    -21.436994   28.673756   47.405424
  H    -20.977452   27.106313   49.143727
  H    -19.250686   26.991711   48.706440
  C    -23.259438   25.753119   45.214292
  H    -24.271485   25.814986   45.621819
  H    -23.226071   26.364522   44.301858
  O    -22.418514   26.335680   46.253002
  C    -22.924962   24.308441   44.819947
  C    -23.094521   23.262707   45.930925
  C    -24.627972   23.045069   45.921381
  C    -25.000568   23.184864   44.424489
  O    -23.862818   23.885104   43.770870
  H    -21.930239   24.238133   44.372842
  O    -22.371141   22.043584   45.603721
  H    -22.702772   23.588850   46.893946
  H    -24.879557   22.063865   46.331671
  H    -25.125395   23.806321   46.531567
  H    -25.913384   23.766379   44.264419
  H    -25.109845   22.218048   43.924062
  H    -22.551275   21.802474   44.670342

 Multiplicity           Mult            ....    1
 Number of Electrons    NEL             ....  102
 Basis Dimension        Dim             ....  149

ORBITAL ENERGIES
----------------

  NO   OCC          E(Eh)            E(eV)
   0   2.0000     -19.148486      -521.0568
   1   2.0000     -19.141476      -520.8661
   2   2.0000     -19.138192      -520.7767
   3   2.0000     -19.136190      -520.7222
   4   2.0000     -10.279370      -279.7159
   5   2.0000     -10.236889      -278.5599
   6   2.0000     -10.236293      -278.5437
   7   2.0000     -10.233831      -278.4767
   8   2.0000     -10.233265      -278.4613
   9   2.0000     -10.222974      -278.1813
  10   2.0000     -10.188820      -277.2519
  11   2.0000     -10.184371      -277.1308
  12   2.0000     -10.183845      -277.1165
  13   2.0000      -1.051113       -28.6022
  14   2.0000      -1.037523       -28.2324
  15   2.0000      -1.005637       -27.3648
  16   2.0000      -0.992418       -27.0051
  17   2.0000      -0.786589       -21.4042
  18   2.0000      -0.779150       -21.2018
  19   2.0000      -0.767022       -20.8717
  20   2.0000      -0.734259       -19.9802
  21   2.0000      -0.676110       -18.3979
  22   2.0000      -0.608669       -16.5627
  23   2.0000      -0.603264       -16.4156
  24   2.0000      -0.597030       -16.2460
  25   2.0000      -0.570069       -15.5124
  26   2.0000      -0.523391       -14.2422
  27   2.0000      -0.520934       -14.1753
  28   2.0000      -0.496233       -13.5032
  29   2.0000      -0.484646       -13.1879
  30   2.0000      -0.467864       -12.7312
  31   2.0000      -0.461243       -12.5511
  32   2.0000      -0.453630       -12.3439
  33   2.0000      -0.432930       -11.7806
  34   2.0000      -0.424234       -11.5440
  35   2.0000      -0.414531       -11.2800
  36   2.0000      -0.400830       -10.9072
  37   2.0000      -0.393691       -10.7129
  38   2.0000      -0.373390       -10.1605
  39   2.0000      -0.368312       -10.0223
  40   2.0000      -0.364771        -9.9259
  41   2.0000      -0.355304        -9.6683
  42   2.0000      -0.351256        -9.5582
  43   2.0000      -0.333715        -9.0808
  44   2.0000      -0.313423        -8.5287
  45   2.0000      -0.310687        -8.4542
  46   2.0000      -0.306387        -8.3372
  47   2.0000      -0.269180        -7.3248
  48   2.0000      -0.264912        -7.2086
  49   2.0000      -0.255705        -6.9581
  50   2.0000      -0.239367        -6.5135
  51   0.0000       0.062298         1.6952
  52   0.0000       0.074533         2.0281
  53   0.0000       0.092146         2.5074
  54   0.0000       0.097088         2.6419
  55   0.0000       0.099928         2.7192

MULLIKEN ATOMIC CHARGES
-----------------------
   0 C :    0.278291
   1 C :   -0.252223
   2 C :   -0.299036
   3 C :   -0.001750
   4 O :   -0.502459
   5 H :    0.149123
   6 H :    0.143403
   7 H :    0.144692
   8 H :    0.140755
   9 H :    0.163154
  10 H :    0.151936
  11 H :    0.141704
  12 C :    0.002149
  13 H :    0.150261
  14 H :    0.144661
  15 O :   -0.525033
  16 C :    0.029241
  17 C :    0.088729
  18 C :   -0.300402
  19 C :   -0.032310
  20 O :   -0.529858
  21 H :    0.161027
  22 O :   -0.602613
  23 H :    0.186036
  24 H :    0.162311
  25 H :    0.152109
  26 H :    0.146808
  27 H :    0.148264
  28 H :    0.361028
Sum of atomic charges:   -0.0000000

LOEWDIN ATOMIC CHARGES
----------------------
   0 C :    0.173816
   1 C :   -0.222220
   2 C :   -0.216392
   3 C :   -0.026113
   4 O :   -0.312491
   5 H :    0.101289
   6 H :    0.112572
   7 H :    0.117018
   8 H :    0.113698
   9 H :    0.119697
  10 H :    0.108034
  11 H :    0.102312
  12 C :   -0.038872
  13 H :    0.112869
  14 H :    0.100987
  15 O :   -0.335459
  16 C :   -0.000375
  17 C :    0.036523
  18 C :   -0.239949
  19 C :   -0.038237
  20 O :   -0.330070
  21 H :    0.110315
  22 O :   -0.413663
  23 H :    0.131996
  24 H :    0.127257
  25 H :    0.116931
  26 H :    0.104523
  27 H :    0.103486
  28 H :    0.280516

  Mayer bond orders larger than 0.100000
B(  0-C ,  1-C ) :   0.9382 B(  0-C ,  4-O ) :   0.9277 B(  0-C ,  5-H ) :   0.9120
B(  0-C , 15-O ) :   0.8316 B(  1-C ,  2-C ) :   0.9556 B(  1-C ,  6-H ) :   0.9358
B(  1-C ,  7-H ) :   0.9390 B(  2-C ,  3-C ) :   0.9546 B(  2-C ,  8-H ) :   0.9453
B(  2-C ,  9-H ) :   0.9435 B(  3-C ,  4-O ) :   0.8363 B(  3-C , 10-H ) :   0.9349
B(  3-C , 11-H ) :   0.9397 B( 12-C , 13-H ) :   0.9384 B( 12-C , 14-H ) :   0.9172
B( 12-C , 15-O ) :   0.8442 B( 12-C , 16-C ) :   0.8832 B( 16-C , 17-C ) :   0.9036
B( 16-C , 20-O ) :   0.8329 B( 16-C , 21-H ) :   0.9215 B( 17-C , 18-C ) :   0.9129
B( 17-C , 22-O ) :   0.8868 B( 17-C , 23-H ) :   0.9203 B( 18-C , 19-C ) :   0.9402
B( 18-C , 24-H ) :   0.9380 B( 18-C , 25-H ) :   0.9336 B( 19-C , 20-O ) :   0.8411
B( 19-C , 26-H ) :   0.9358 B( 19-C , 27-H ) :   0.9379 B( 22-O , 28-H ) :   0.7970

FINAL SINGLE POINT ENERGY      -652.859131128360

DIPOLE MOMENT
-------------
                                X             Y             Z
Electronic contribution:      0.32006      -3.65370      -1.23027
Nuclear contribution   :     -0.71014       4.37289       0.95038
                        -----------------------------------------
Total Dipole Moment    :     -0.39007       0.71919      -0.27989
                        -----------------------------------------
Magnitude (a.u.)       :      0.86472
Magnitude (Debye)      :      2.19794

Rotational constants in cm-1:     0.059615     0.013027     0.012045
Rotational constants in MHz :  1787.227323   390.536588   361.102486

                             ****ORCA TERMINATED NORMALLY****
TOTAL RUN TIME: 0 days 1 hours 45 minutes 6 seconds 343 msec
