                         Program Version 4.2.0 -  RELEASE  -
|  1> # Test redundant internal optimization
|  2> #
|  3> ! RKS B3LYP  Opt TightSCF SmallPrint
|  4>
|  5> %basis
|  6>         Basis "6-31G"
|  7> end
|  8>
|  9> %geom
| 10> Constraints
| 11> { D 4  0  15  12  135.0   C } # D for Dihedral angle
| 12> { D 0  15  12  16  210.0   C } # D for Dihedral angle
| 13> { D 0  4  3  2   C } # D for Dihedral angle
| 14> { D 4  3  2  1   C } # D for Dihedral angle
| 15> { D 3  2  1  0   C } # D for Dihedral angle
| 16> { D 2  1  0  4   C } # D for Dihedral angle
| 17> { D 1  0  4  3   C } # D for Dihedral angle
| 18> { D 16  20  19  18   C } # D for Dihedral angle
| 19> { D 20  19  18  17   C } # D for Dihedral angle
| 20> { D 19  18  17  16   C } # D for Dihedral angle
| 21> { D 18  17  16  20   C } # D for Dihedral angle
| 22> { D 17  16  20  19   C } # D for Dihedral angle
| 23> { D 15  12  16  20   C } # D for Dihedral angle
| 24> end
| 25> end
| 26>
| 27>
| 28> #%pal
| 29> #nprocs 8
| 30> #end
| 31>
| 32> * xyz 0 1
| 33> C  -21.048   26.222   46.251
| 34> C  -20.361   27.558   45.944
| 35> C  -20.329   28.222   47.341
| 36> C  -20.110   27.022   48.296
| 37> O  -20.473   25.807   47.535
| 38> H  -20.833   25.428   45.533
| 39> H  -19.344   27.382   45.576
| 40> H  -20.898   28.157   45.201
| 41> H  -19.543   28.978   47.434
| 42> H  -21.289   28.710   47.548
| 43> H  -20.733   27.082   49.195
| 44> H  -19.064   26.913   48.597
| 45> C  -23.162   27.680   45.721
| 46> H  -22.403   28.471   45.749
| 47> H  -23.423   27.492   44.671
| 48> O  -22.586   26.394   46.375
| 49> C  -24.437   28.200   46.439
| 50> C  -25.043   29.398   45.700
| 51> C  -25.793   28.704   44.539
| 52> C  -26.300   27.390   45.184
| 53> O  -25.495   27.184   46.406
| 54> H  -24.205   28.387   47.490
| 55> H  -25.746   29.928   46.353
| 56> O  -23.976   30.413   45.206
| 57> H  -26.609   29.313   44.136
| 58> H  -25.099   28.489   43.718
| 59> H  -26.177   26.524   44.523
| 60> H  -27.347   27.454   45.494
| 61> H  -23.260   29.906   44.549
| 62> *
| 63>
| 64>                          ****END OF INPUT****
 Total Charge           Charge          ....    0
 Multiplicity           Mult            ....    1
 Number of Electrons    NEL             ....  102
FINAL SINGLE POINT ENERGY      -652.812081668103
FINAL SINGLE POINT ENERGY      -652.836351275294
FINAL SINGLE POINT ENERGY      -652.843535955646
FINAL SINGLE POINT ENERGY      -652.845727590313
FINAL SINGLE POINT ENERGY      -652.846146128880
FINAL SINGLE POINT ENERGY      -652.846259111954
FINAL SINGLE POINT ENERGY      -652.846275147185
FINAL SINGLE POINT ENERGY      -652.846280338408
FINAL SINGLE POINT ENERGY      -652.846281210188
                    ***********************HURRAY********************

CARTESIAN COORDINATES (ANGSTROEM)
---------------------------------
  C    -21.094289   26.288882   46.263563
  C    -20.152433   27.460757   45.977433
  C    -20.147473   28.212986   47.335997
  C    -20.249714   27.057722   48.357574
  O    -20.744537   25.885657   47.599088
  H    -20.934116   25.412864   45.631021
  H    -19.158785   27.050004   45.767388
  H    -20.437607   28.086312   45.128299
  H    -19.243529   28.813640   47.474741
  H    -21.010943   28.882757   47.412573
  H    -20.943949   27.268496   49.175252
  H    -19.277600   26.776631   48.773292
  C    -23.074250   27.749296   45.585912
  H    -22.396390   28.609902   45.627729
  H    -23.280943   27.524967   44.527805
  O    -22.523895   26.577023   46.232266
  C    -24.351859   28.139176   46.329222
  C    -25.070148   29.356554   45.723925
  C    -25.908155   28.701979   44.584848
  C    -26.299328   27.337592   45.195240
  O    -25.369918   27.095042   46.325355
  H    -24.089843   28.291841   47.380412
  H    -25.727567   29.800157   46.475154
  O    -24.203905   30.441505   45.303577
  H    -26.773422   29.308544   44.304759
  H    -25.279300   28.575825   43.693019
  H    -26.217728   26.511630   44.481316
  H    -27.312235   27.345151   45.609055
  H    -23.812137   30.245106   44.428183

 Multiplicity           Mult            ....    1
 Number of Electrons    NEL             ....  102
 Basis Dimension        Dim             ....  149

ORBITAL ENERGIES
----------------

  NO   OCC          E(Eh)            E(eV)
   0   2.0000     -19.153219      -521.1856
   1   2.0000     -19.135327      -520.6987
   2   2.0000     -19.134444      -520.6747
   3   2.0000     -19.133669      -520.6536
   4   2.0000     -10.277440      -279.6634
   5   2.0000     -10.246625      -278.8248
   6   2.0000     -10.231989      -278.4266
   7   2.0000     -10.229727      -278.3650
   8   2.0000     -10.229493      -278.3586
   9   2.0000     -10.224114      -278.2123
  10   2.0000     -10.197752      -277.4949
  11   2.0000     -10.193012      -277.3660
  12   2.0000     -10.191641      -277.3286
  13   2.0000      -1.047810       -28.5124
  14   2.0000      -1.035131       -28.1674
  15   2.0000      -1.015544       -27.6344
  16   2.0000      -0.988633       -26.9021
  17   2.0000      -0.788797       -21.4643
  18   2.0000      -0.783967       -21.3328
  19   2.0000      -0.769939       -20.9511
  20   2.0000      -0.731759       -19.9122
  21   2.0000      -0.684003       -18.6127
  22   2.0000      -0.612968       -16.6797
  23   2.0000      -0.604211       -16.4414
  24   2.0000      -0.592231       -16.1154
  25   2.0000      -0.570579       -15.5262
  26   2.0000      -0.525416       -14.2973
  27   2.0000      -0.514820       -14.0090
  28   2.0000      -0.501076       -13.6350
  29   2.0000      -0.498579       -13.5670
  30   2.0000      -0.466387       -12.6910
  31   2.0000      -0.457378       -12.4459
  32   2.0000      -0.446385       -12.1467
  33   2.0000      -0.434534       -11.8243
  34   2.0000      -0.430649       -11.7186
  35   2.0000      -0.419176       -11.4064
  36   2.0000      -0.411343       -11.1932
  37   2.0000      -0.396728       -10.7955
  38   2.0000      -0.379776       -10.3342
  39   2.0000      -0.376364       -10.2414
  40   2.0000      -0.362646        -9.8681
  41   2.0000      -0.356936        -9.7127
  42   2.0000      -0.351760        -9.5719
  43   2.0000      -0.330744        -9.0000
  44   2.0000      -0.317773        -8.6470
  45   2.0000      -0.309428        -8.4200
  46   2.0000      -0.288141        -7.8407
  47   2.0000      -0.273083        -7.4310
  48   2.0000      -0.263885        -7.1807
  49   2.0000      -0.246206        -6.6996
  50   2.0000      -0.237118        -6.4523
  51   0.0000       0.046534         1.2663
  52   0.0000       0.073448         1.9986
  53   0.0000       0.084727         2.3055
  54   0.0000       0.089778         2.4430
  55   0.0000       0.104233         2.8363

MULLIKEN ATOMIC CHARGES
-----------------------
   0 C :    0.319867
   1 C :   -0.302757
   2 C :   -0.305944
   3 C :   -0.001047
   4 O :   -0.493106
   5 H :    0.152289
   6 H :    0.154781
   7 H :    0.140377
   8 H :    0.145413
   9 H :    0.156070
  10 H :    0.152754
  11 H :    0.143346
  12 C :   -0.016797
  13 H :    0.131570
  14 H :    0.117469
  15 O :   -0.513314
  16 C :    0.105475
  17 C :    0.079929
  18 C :   -0.331971
  19 C :   -0.007403
  20 O :   -0.499100
  21 H :    0.159948
  22 H :    0.169920
  23 O :   -0.601695
  24 H :    0.159093
  25 H :    0.132971
  26 H :    0.147850
  27 H :    0.149111
  28 H :    0.354901
Sum of atomic charges:    0.0000000

LOEWDIN ATOMIC CHARGES
----------------------
   0 C :    0.184356
   1 C :   -0.234172
   2 C :   -0.219496
   3 C :   -0.028159
   4 O :   -0.306929
   5 H :    0.102995
   6 H :    0.121665
   7 H :    0.111894
   8 H :    0.116076
   9 H :    0.111954
  10 H :    0.108088
  11 H :    0.103228
  12 C :   -0.050650
  13 H :    0.097083
  14 H :    0.085946
  15 O :   -0.320854
  16 C :    0.022334
  17 C :    0.033079
  18 C :   -0.242807
  19 C :   -0.029190
  20 O :   -0.308074
  21 H :    0.118267
  22 H :    0.120001
  23 O :   -0.409985
  24 H :    0.122656
  25 H :    0.103110
  26 H :    0.104642
  27 H :    0.105844
  28 H :    0.277096

  Mayer bond orders larger than 0.100000
B(  0-C ,  1-C ) :   0.9304 B(  0-C ,  4-O ) :   0.9245 B(  0-C ,  5-H ) :   0.9284
B(  0-C , 15-O ) :   0.8585 B(  1-C ,  2-C ) :   0.9490 B(  1-C ,  6-H ) :   0.9338
B(  1-C ,  7-H ) :   0.9293 B(  2-C ,  3-C ) :   0.9503 B(  2-C ,  8-H ) :   0.9458
B(  2-C ,  9-H ) :   0.9413 B(  3-C ,  4-O ) :   0.8430 B(  3-C , 10-H ) :   0.9338
B(  3-C , 11-H ) :   0.9394 B( 12-C , 13-H ) :   0.8878 B( 12-C , 14-H ) :   0.9204
B( 12-C , 15-O ) :   0.8535 B( 12-C , 16-C ) :   0.9002 B( 16-C , 17-C ) :   0.8706
B( 16-C , 20-O ) :   0.8777 B( 16-C , 21-H ) :   0.9287 B( 17-C , 18-C ) :   0.9265
B( 17-C , 22-H ) :   0.9328 B( 17-C , 23-O ) :   0.8897 B( 18-C , 19-C ) :   0.9394
B( 18-C , 24-H ) :   0.9411 B( 18-C , 25-H ) :   0.9403 B( 19-C , 20-O ) :   0.8509
B( 19-C , 26-H ) :   0.9311 B( 19-C , 27-H ) :   0.9374 B( 23-O , 28-H ) :   0.7999

FINAL SINGLE POINT ENERGY      -652.846281276303

DIPOLE MOMENT
-------------
                                X             Y             Z
Electronic contribution:     -1.84954      -3.44370       1.93584
Nuclear contribution   :      2.24313       4.59538      -3.24509
                        -----------------------------------------
Total Dipole Moment    :      0.39359       1.15168      -1.30925
                        -----------------------------------------
Magnitude (a.u.)       :      1.78757
Magnitude (Debye)      :      4.54365

Rotational constants in cm-1:     0.052266     0.013652     0.012188
Rotational constants in MHz :  1566.882063   409.274815   365.379061

                             ****ORCA TERMINATED NORMALLY****
TOTAL RUN TIME: 0 days 2 hours 30 minutes 27 seconds 195 msec
