                         Program Version 4.2.0 -  RELEASE  -
|  1> # Test redundant internal optimization
|  2> #
|  3> ! RKS B3LYP  Opt TightSCF SmallPrint
|  4>
|  5> %basis
|  6>         Basis "6-31G"
|  7> end
|  8>
|  9> %geom
| 10> Constraints
| 11> { D 4  0  15  12  300.0   C } # D for Dihedral angle
| 12> { D 0  15  12  16  75.0   C } # D for Dihedral angle
| 13> { D 0  4  3  2   C } # D for Dihedral angle
| 14> { D 4  3  2  1   C } # D for Dihedral angle
| 15> { D 3  2  1  0   C } # D for Dihedral angle
| 16> { D 2  1  0  4   C } # D for Dihedral angle
| 17> { D 1  0  4  3   C } # D for Dihedral angle
| 18> { D 16  20  19  18   C } # D for Dihedral angle
| 19> { D 20  19  18  17   C } # D for Dihedral angle
| 20> { D 19  18  17  16   C } # D for Dihedral angle
| 21> { D 18  17  16  20   C } # D for Dihedral angle
| 22> { D 17  16  20  19   C } # D for Dihedral angle
| 23> { D 15  12  16  20   C } # D for Dihedral angle
| 24> end
| 25> end
| 26>
| 27>
| 28> #%pal
| 29> #nprocs 8
| 30> #end
| 31>
| 32> * xyz 0 1
| 33> C  -21.048   26.222   46.251
| 34> C  -20.361   27.558   45.944
| 35> C  -20.329   28.222   47.341
| 36> C  -20.110   27.022   48.296
| 37> O  -20.473   25.807   47.535
| 38> H  -20.833   25.428   45.533
| 39> H  -19.344   27.382   45.576
| 40> H  -20.898   28.157   45.201
| 41> H  -19.543   28.978   47.434
| 42> H  -21.289   28.710   47.548
| 43> H  -20.733   27.082   49.195
| 44> H  -19.064   26.913   48.597
| 45> C  -23.362   25.116   46.798
| 46> H  -24.430   25.256   46.591
| 47> H  -23.012   24.248   46.225
| 48> O  -22.586   26.394   46.375
| 49> C  -23.196   24.785   48.307
| 50> C  -23.876   23.459   48.663
| 51> C  -22.836   22.428   48.165
| 52> C  -21.484   23.126   48.452
| 53> O  -21.782   24.563   48.631
| 54> H  -23.530   25.639   48.900
| 55> H  -24.007   23.382   49.749
| 56> O  -25.266   23.286   47.990
| 57> H  -22.922   21.460   48.669
| 58> H  -22.962   22.257   47.089
| 59> H  -20.768   23.009   47.630
| 60> H  -21.021   22.775   49.378
| 61> H  -25.161   23.358   46.902
| 62> *
| 63>
| 64>                          ****END OF INPUT****
 Total Charge           Charge          ....    0
 Multiplicity           Mult            ....    1
 Number of Electrons    NEL             ....  102
FINAL SINGLE POINT ENERGY      -652.797399518332
FINAL SINGLE POINT ENERGY      -652.827423745002
FINAL SINGLE POINT ENERGY      -652.847340051169
FINAL SINGLE POINT ENERGY      -652.851239964071
FINAL SINGLE POINT ENERGY      -652.851898975877
FINAL SINGLE POINT ENERGY      -652.852042315769
FINAL SINGLE POINT ENERGY      -652.852057279603
FINAL SINGLE POINT ENERGY      -652.852060943016
                    ***********************HURRAY********************

CARTESIAN COORDINATES (ANGSTROEM)
---------------------------------
  C    -20.929670   26.272016   46.226245
  C    -20.532070   27.713333   45.917868
  C    -20.416706   28.325095   47.334081
  C    -19.865284   27.149450   48.172013
  O    -20.134541   25.928630   47.369343
  H    -20.688209   25.524896   45.460797
  H    -19.560965   27.718094   45.408615
  H    -21.266970   28.218495   45.288222
  H    -19.761954   29.201430   47.362034
  H    -21.408955   28.619341   47.686814
  H    -20.353625   27.035846   49.142107
  H    -18.780901   27.196178   48.312742
  C    -23.148401   25.161153   46.832586
  H    -24.181893   25.453101   46.624395
  H    -22.892083   24.310421   46.174345
  O    -22.370488   26.311124   46.411328
  C    -23.097814   24.708202   48.304095
  C    -23.972958   23.464201   48.532144
  C    -22.986734   22.301791   48.189160
  C    -21.636743   22.854779   48.698873
  O    -21.806550   24.321521   48.841022
  H    -23.425898   25.550594   48.922904
  H    -24.256638   23.414477   49.585809
  O    -25.232825   23.432399   47.816991
  H    -23.275672   21.363424   48.668413
  H    -22.970607   22.138848   47.103419
  H    -20.805001   22.663448   48.014624
  H    -21.378092   22.465557   49.687894
  H    -25.087753   23.204155   46.876118

 Multiplicity           Mult            ....    1
 Number of Electrons    NEL             ....  102
 Basis Dimension        Dim             ....  149

ORBITAL ENERGIES
----------------

  NO   OCC          E(Eh)            E(eV)
   0   2.0000     -19.148091      -521.0460
   1   2.0000     -19.136987      -520.7439
   2   2.0000     -19.131537      -520.5956
   3   2.0000     -19.129035      -520.5275
   4   2.0000     -10.271259      -279.4952
   5   2.0000     -10.243239      -278.7327
   6   2.0000     -10.228918      -278.3430
   7   2.0000     -10.227224      -278.2969
   8   2.0000     -10.225577      -278.2521
   9   2.0000     -10.214559      -277.9523
  10   2.0000     -10.193601      -277.3820
  11   2.0000     -10.176732      -276.9230
  12   2.0000     -10.176292      -276.9110
  13   2.0000      -1.043037       -28.3825
  14   2.0000      -1.031044       -28.0561
  15   2.0000      -1.012467       -27.5506
  16   2.0000      -0.987353       -26.8673
  17   2.0000      -0.782407       -21.2904
  18   2.0000      -0.777712       -21.1626
  19   2.0000      -0.761548       -20.7228
  20   2.0000      -0.726539       -19.7701
  21   2.0000      -0.675106       -18.3706
  22   2.0000      -0.609413       -16.5830
  23   2.0000      -0.592521       -16.1233
  24   2.0000      -0.588942       -16.0259
  25   2.0000      -0.565881       -15.3984
  26   2.0000      -0.522889       -14.2285
  27   2.0000      -0.510289       -13.8857
  28   2.0000      -0.491865       -13.3843
  29   2.0000      -0.478602       -13.0234
  30   2.0000      -0.461034       -12.5454
  31   2.0000      -0.453063       -12.3285
  32   2.0000      -0.443715       -12.0741
  33   2.0000      -0.426488       -11.6053
  34   2.0000      -0.419865       -11.4251
  35   2.0000      -0.414290       -11.2734
  36   2.0000      -0.402686       -10.9576
  37   2.0000      -0.391903       -10.6642
  38   2.0000      -0.379110       -10.3161
  39   2.0000      -0.363746        -9.8980
  40   2.0000      -0.348609        -9.4861
  41   2.0000      -0.347782        -9.4636
  42   2.0000      -0.337478        -9.1833
  43   2.0000      -0.329551        -8.9675
  44   2.0000      -0.318332        -8.6622
  45   2.0000      -0.311230        -8.4690
  46   2.0000      -0.282764        -7.6944
  47   2.0000      -0.269388        -7.3304
  48   2.0000      -0.264923        -7.2089
  49   2.0000      -0.251339        -6.8393
  50   2.0000      -0.222786        -6.0623
  51   0.0000       0.054017         1.4699
  52   0.0000       0.079265         2.1569
  53   0.0000       0.091696         2.4952
  54   0.0000       0.100381         2.7315
  55   0.0000       0.112347         3.0571

MULLIKEN ATOMIC CHARGES
-----------------------
   0 C :    0.304528
   1 C :   -0.264371
   2 C :   -0.298770
   3 C :   -0.007346
   4 O :   -0.488728
   5 H :    0.132484
   6 H :    0.140634
   7 H :    0.155307
   8 H :    0.136668
   9 H :    0.159014
  10 H :    0.156591
  11 H :    0.139767
  12 C :   -0.005671
  13 H :    0.160207
  14 H :    0.100337
  15 O :   -0.535843
  16 C :    0.098578
  17 C :    0.075795
  18 C :   -0.322432
  19 C :   -0.006493
  20 O :   -0.492979
  21 H :    0.152414
  22 H :    0.168109
  23 O :   -0.599199
  24 H :    0.155204
  25 H :    0.133532
  26 H :    0.151354
  27 H :    0.145482
  28 H :    0.355828
Sum of atomic charges:   -0.0000000

LOEWDIN ATOMIC CHARGES
----------------------
   0 C :    0.176951
   1 C :   -0.215572
   2 C :   -0.217134
   3 C :   -0.028310
   4 O :   -0.307136
   5 H :    0.090844
   6 H :    0.111028
   7 H :    0.122595
   8 H :    0.111460
   9 H :    0.117486
  10 H :    0.110355
  11 H :    0.101100
  12 C :   -0.048224
  13 H :    0.120343
  14 H :    0.078521
  15 O :   -0.332233
  16 C :    0.009817
  17 C :    0.033156
  18 C :   -0.242067
  19 C :   -0.027969
  20 O :   -0.303092
  21 H :    0.112324
  22 H :    0.118875
  23 O :   -0.407561
  24 H :    0.121830
  25 H :    0.103742
  26 H :    0.106793
  27 H :    0.104308
  28 H :    0.277770

  Mayer bond orders larger than 0.100000
B(  0-C ,  1-C ) :   0.9456 B(  0-C ,  4-O ) :   0.9355 B(  0-C ,  5-H ) :   0.9237
B(  0-C , 15-O ) :   0.8391 B(  1-C ,  2-C ) :   0.9598 B(  1-C ,  6-H ) :   0.9409
B(  1-C ,  7-H ) :   0.9365 B(  2-C ,  3-C ) :   0.9551 B(  2-C ,  8-H ) :   0.9452
B(  2-C ,  9-H ) :   0.9445 B(  3-C ,  4-O ) :   0.8351 B(  3-C , 10-H ) :   0.9314
B(  3-C , 11-H ) :   0.9407 B( 12-C , 13-H ) :   0.9198 B( 12-C , 14-H ) :   0.9223
B( 12-C , 15-O ) :   0.8607 B( 12-C , 16-C ) :   0.8813 B( 16-C , 17-C ) :   0.8650
B( 16-C , 20-O ) :   0.8800 B( 16-C , 21-H ) :   0.9311 B( 17-C , 18-C ) :   0.9258
B( 17-C , 22-H ) :   0.9336 B( 17-C , 23-O ) :   0.8945 B( 18-C , 19-C ) :   0.9396
B( 18-C , 24-H ) :   0.9422 B( 18-C , 25-H ) :   0.9398 B( 19-C , 20-O ) :   0.8472
B( 19-C , 26-H ) :   0.9290 B( 19-C , 27-H ) :   0.9382 B( 23-O , 28-H ) :   0.7984

FINAL SINGLE POINT ENERGY      -652.852061201177

DIPOLE MOMENT
-------------
                                X             Y             Z
Electronic contribution:     -1.94642      -1.06163       0.52844
Nuclear contribution   :      2.22935       0.66814      -0.96165
                        -----------------------------------------
Total Dipole Moment    :      0.28293      -0.39350      -0.43321
                        -----------------------------------------
Magnitude (a.u.)       :      0.65005
Magnitude (Debye)      :      1.65230

Rotational constants in cm-1:     0.054321     0.015386     0.013525
Rotational constants in MHz :  1628.509366   461.259520   405.455653

                             ****ORCA TERMINATED NORMALLY****
TOTAL RUN TIME: 0 days 0 hours 26 minutes 56 seconds 368 msec
