                         Program Version 4.2.0 -  RELEASE  -
|  1> # Test redundant internal optimization
|  2> #
|  3> ! RKS B3LYP  Opt TightSCF SmallPrint
|  4>
|  5> %basis
|  6>         Basis "6-31G"
|  7> end
|  8>
|  9> %geom
| 10> Constraints
| 11> { D 4  0  15  12  30.0   C } # D for Dihedral angle
| 12> { D 0  15  12  16  240.0   C } # D for Dihedral angle
| 13> { D 0  4  3  2   C } # D for Dihedral angle
| 14> { D 4  3  2  1   C } # D for Dihedral angle
| 15> { D 3  2  1  0   C } # D for Dihedral angle
| 16> { D 2  1  0  4   C } # D for Dihedral angle
| 17> { D 1  0  4  3   C } # D for Dihedral angle
| 18> { D 16  20  19  18   C } # D for Dihedral angle
| 19> { D 20  19  18  17   C } # D for Dihedral angle
| 20> { D 19  18  17  16   C } # D for Dihedral angle
| 21> { D 18  17  16  20   C } # D for Dihedral angle
| 22> { D 17  16  20  19   C } # D for Dihedral angle
| 23> { D 15  12  16  20   C } # D for Dihedral angle
| 24> end
| 25> end
| 26>
| 27>
| 28> #%pal
| 29> #nprocs 8
| 30> #end
| 31>
| 32> * xyz 0 1
| 33> C  -21.048   26.222   46.251
| 34> C  -20.361   27.558   45.944
| 35> C  -20.329   28.222   47.341
| 36> C  -20.110   27.022   48.296
| 37> O  -20.473   25.807   47.535
| 38> H  -20.833   25.428   45.533
| 39> H  -19.344   27.382   45.576
| 40> H  -20.898   28.157   45.201
| 41> H  -19.543   28.978   47.434
| 42> H  -21.289   28.710   47.548
| 43> H  -20.733   27.082   49.195
| 44> H  -19.064   26.913   48.597
| 45> C  -23.091   26.824   47.779
| 46> H  -22.233   26.941   48.453
| 47> H  -23.615   27.787   47.721
| 48> O  -22.586   26.394   46.375
| 49> C  -24.069   25.792   48.408
| 50> C  -23.367   24.458   48.684
| 51> C  -22.607   24.769   49.996
| 52> C  -23.571   25.724   50.742
| 53> O  -24.513   26.247   49.730
| 54> H  -24.958   25.714   47.781
| 55> O  -24.420   23.340   48.912
| 56> H  -22.702   24.144   47.872
| 57> H  -22.378   23.870   50.577
| 58> H  -21.660   25.273   49.771
| 59> H  -23.049   26.564   51.213
| 60> H  -24.166   25.208   51.501
| 61> H  -25.098   23.631   49.723
| 62> *
| 63>
| 64>                          ****END OF INPUT****
 Total Charge           Charge          ....    0
 Multiplicity           Mult            ....    1
 Number of Electrons    NEL             ....  102
FINAL SINGLE POINT ENERGY      -652.827000992982
FINAL SINGLE POINT ENERGY      -652.850962139926
FINAL SINGLE POINT ENERGY      -652.858324135547
FINAL SINGLE POINT ENERGY      -652.860570178606
FINAL SINGLE POINT ENERGY      -652.860873838772
FINAL SINGLE POINT ENERGY      -652.860921459988
FINAL SINGLE POINT ENERGY      -652.860926835116
FINAL SINGLE POINT ENERGY      -652.860928121599
                    ***********************HURRAY********************

CARTESIAN COORDINATES (ANGSTROEM)
---------------------------------
  C    -21.130614   26.281162   46.409737
  C    -20.441562   27.552233   45.898463
  C    -20.143619   28.308940   47.221294
  C    -19.826164   27.162491   48.210936
  O    -20.378547   25.924878   47.594050
  H    -21.042495   25.437684   45.722866
  H    -19.511994   27.274818   45.389108
  H    -21.074990   28.113409   45.208440
  H    -19.309079   29.010156   47.127056
  H    -21.023292   28.877677   47.541451
  H    -20.274628   27.301158   49.199264
  H    -18.751465   26.996357   48.329860
  C    -23.123151   26.837924   47.879065
  H    -22.343775   27.048037   48.614182
  H    -23.706746   27.749184   47.714493
  O    -22.560023   26.413126   46.603101
  C    -24.044187   25.737329   48.414890
  C    -23.362783   24.399402   48.734840
  C    -22.718917   24.698615   50.112829
  C    -23.744331   25.642378   50.786790
  O    -24.603460   26.178478   49.699972
  H    -24.882841   25.589574   47.729161
  O    -24.348950   23.331078   48.815309
  H    -22.644672   24.085428   47.981143
  H    -22.559720   23.774251   50.673357
  H    -21.749086   25.184052   49.964032
  H    -23.274971   26.479629   51.313199
  H    -24.402670   25.117860   51.486452
  H    -25.129266   23.653689   49.313661

 Multiplicity           Mult            ....    1
 Number of Electrons    NEL             ....  102
 Basis Dimension        Dim             ....  149

ORBITAL ENERGIES
----------------

  NO   OCC          E(Eh)            E(eV)
   0   2.0000     -19.158583      -521.3315
   1   2.0000     -19.144376      -520.9450
   2   2.0000     -19.141262      -520.8602
   3   2.0000     -19.128827      -520.5219
   4   2.0000     -10.285263      -279.8762
   5   2.0000     -10.240951      -278.6704
   6   2.0000     -10.230758      -278.3931
   7   2.0000     -10.228734      -278.3380
   8   2.0000     -10.227975      -278.3173
   9   2.0000     -10.226716      -278.2831
  10   2.0000     -10.199239      -277.5354
  11   2.0000     -10.192120      -277.3417
  12   2.0000     -10.179877      -277.0085
  13   2.0000      -1.060543       -28.8588
  14   2.0000      -1.031061       -28.0566
  15   2.0000      -1.001058       -27.2402
  16   2.0000      -0.997206       -27.1354
  17   2.0000      -0.796096       -21.6629
  18   2.0000      -0.776934       -21.1414
  19   2.0000      -0.766824       -20.8663
  20   2.0000      -0.735992       -20.0274
  21   2.0000      -0.676160       -18.3993
  22   2.0000      -0.611156       -16.6304
  23   2.0000      -0.599077       -16.3017
  24   2.0000      -0.596138       -16.2217
  25   2.0000      -0.575807       -15.6685
  26   2.0000      -0.525402       -14.2969
  27   2.0000      -0.511886       -13.9291
  28   2.0000      -0.507829       -13.8187
  29   2.0000      -0.486031       -13.2256
  30   2.0000      -0.475992       -12.9524
  31   2.0000      -0.458633       -12.4800
  32   2.0000      -0.452557       -12.3147
  33   2.0000      -0.434104       -11.8126
  34   2.0000      -0.423066       -11.5122
  35   2.0000      -0.414252       -11.2724
  36   2.0000      -0.408580       -11.1180
  37   2.0000      -0.386916       -10.5285
  38   2.0000      -0.382715       -10.4142
  39   2.0000      -0.368098       -10.0165
  40   2.0000      -0.361425        -9.8349
  41   2.0000      -0.357456        -9.7269
  42   2.0000      -0.354134        -9.6365
  43   2.0000      -0.333334        -9.0705
  44   2.0000      -0.323745        -8.8096
  45   2.0000      -0.315647        -8.5892
  46   2.0000      -0.301270        -8.1980
  47   2.0000      -0.275221        -7.4891
  48   2.0000      -0.265970        -7.2374
  49   2.0000      -0.257518        -7.0074
  50   2.0000      -0.237454        -6.4614
  51   0.0000       0.059203         1.6110
  52   0.0000       0.069462         1.8902
  53   0.0000       0.089835         2.4445
  54   0.0000       0.094128         2.5614
  55   0.0000       0.106170         2.8890

MULLIKEN ATOMIC CHARGES
-----------------------
   0 C :    0.298950
   1 C :   -0.260069
   2 C :   -0.312882
   3 C :   -0.024989
   4 O :   -0.513424
   5 H :    0.166494
   6 H :    0.149637
   7 H :    0.160695
   8 H :    0.151315
   9 H :    0.155098
  10 H :    0.143406
  11 H :    0.155432
  12 C :   -0.012955
  13 H :    0.134806
  14 H :    0.154817
  15 O :   -0.532684
  16 C :    0.059246
  17 C :    0.095462
  18 C :   -0.311825
  19 C :   -0.027933
  20 O :   -0.530720
  21 H :    0.165051
  22 O :   -0.605626
  23 H :    0.177008
  24 H :    0.159896
  25 H :    0.161133
  26 H :    0.139015
  27 H :    0.144874
  28 H :    0.360771
Sum of atomic charges:   -0.0000000

LOEWDIN ATOMIC CHARGES
----------------------
   0 C :    0.178920
   1 C :   -0.224515
   2 C :   -0.222257
   3 C :   -0.037189
   4 O :   -0.323186
   5 H :    0.111892
   6 H :    0.117259
   7 H :    0.125434
   8 H :    0.119446
   9 H :    0.113627
  10 H :    0.098744
  11 H :    0.108758
  12 C :   -0.040014
  13 H :    0.100614
  14 H :    0.111019
  15 O :   -0.331420
  16 C :    0.013615
  17 C :    0.040430
  18 C :   -0.244712
  19 C :   -0.038905
  20 O :   -0.334358
  21 H :    0.117494
  22 O :   -0.416712
  23 H :    0.127908
  24 H :    0.125868
  25 H :    0.120256
  26 H :    0.100098
  27 H :    0.101833
  28 H :    0.280056

  Mayer bond orders larger than 0.100000
B(  0-C ,  1-C ) :   0.9197 B(  0-C ,  4-O ) :   0.8959 B(  0-C ,  5-H ) :   0.9331
B(  0-C , 15-O ) :   0.8724 B(  1-C ,  2-C ) :   0.9533 B(  1-C ,  6-H ) :   0.9345
B(  1-C ,  7-H ) :   0.9368 B(  2-C ,  3-C ) :   0.9509 B(  2-C ,  8-H ) :   0.9443
B(  2-C ,  9-H ) :   0.9436 B(  3-C ,  4-O ) :   0.8324 B(  3-C , 10-H ) :   0.9270
B(  3-C , 11-H ) :   0.9386 B( 12-C , 13-H ) :   0.9149 B( 12-C , 14-H ) :   0.9291
B( 12-C , 15-O ) :   0.8245 B( 12-C , 16-C ) :   0.8939 B( 16-C , 17-C ) :   0.9145
B( 16-C , 20-O ) :   0.8374 B( 16-C , 21-H ) :   0.9269 B( 17-C , 18-C ) :   0.9142
B( 17-C , 22-O ) :   0.8850 B( 17-C , 23-H ) :   0.9233 B( 18-C , 19-C ) :   0.9388
B( 18-C , 24-H ) :   0.9385 B( 18-C , 25-H ) :   0.9256 B( 19-C , 20-O ) :   0.8430
B( 19-C , 26-H ) :   0.9369 B( 19-C , 27-H ) :   0.9384 B( 22-O , 28-H ) :   0.7969

FINAL SINGLE POINT ENERGY      -652.860928250901

DIPOLE MOMENT
-------------
                                X             Y             Z
Electronic contribution:     -4.59567      -3.87059      -1.69001
Nuclear contribution   :      5.71436       5.08690       2.04432
                        -----------------------------------------
Total Dipole Moment    :      1.11869       1.21631       0.35431
                        -----------------------------------------
Magnitude (a.u.)       :      1.69009
Magnitude (Debye)      :      4.29587

Rotational constants in cm-1:     0.050542     0.015520     0.015019
Rotational constants in MHz :  1515.223252   465.275654   450.249842

                             ****ORCA TERMINATED NORMALLY****
TOTAL RUN TIME: 0 days 0 hours 40 minutes 11 seconds 190 msec
