                         Program Version 4.2.0 -  RELEASE  -
|  1> # Test redundant internal optimization
|  2> #
|  3> ! RKS B3LYP  Opt TightSCF SmallPrint
|  4>
|  5> %basis
|  6>         Basis "6-31G"
|  7> end
|  8>
|  9> %geom
| 10> Constraints
| 11> { D 4  0  15  12  120.0   C } # D for Dihedral angle
| 12> { D 0  15  12  16  90.0   C } # D for Dihedral angle
| 13> { D 0  4  3  2   C } # D for Dihedral angle
| 14> { D 4  3  2  1   C } # D for Dihedral angle
| 15> { D 3  2  1  0   C } # D for Dihedral angle
| 16> { D 2  1  0  4   C } # D for Dihedral angle
| 17> { D 1  0  4  3   C } # D for Dihedral angle
| 18> { D 16  20  19  18   C } # D for Dihedral angle
| 19> { D 20  19  18  17   C } # D for Dihedral angle
| 20> { D 19  18  17  16   C } # D for Dihedral angle
| 21> { D 18  17  16  20   C } # D for Dihedral angle
| 22> { D 17  16  20  19   C } # D for Dihedral angle
| 23> { D 15  12  16  20   C } # D for Dihedral angle
| 24> end
| 25> end
| 26>
| 27>
| 28> #%pal
| 29> #nprocs 8
| 30> #end
| 31>
| 32> * xyz 0 1
| 33> C  -21.048   26.222   46.251
| 34> C  -20.361   27.558   45.944
| 35> C  -20.329   28.222   47.341
| 36> C  -20.110   27.022   48.296
| 37> O  -20.473   25.807   47.535
| 38> H  -20.833   25.428   45.533
| 39> H  -19.344   27.382   45.576
| 40> H  -20.898   28.157   45.201
| 41> H  -19.543   28.978   47.434
| 42> H  -21.289   28.710   47.548
| 43> H  -20.733   27.082   49.195
| 44> H  -19.064   26.913   48.597
| 45> C  -23.119   27.818   46.058
| 46> H  -24.020   28.008   46.654
| 47> H  -22.369   28.576   46.319
| 48> O  -22.586   26.394   46.375
| 49> C  -23.477   28.005   44.557
| 50> C  -23.888   29.451   44.259
| 51> C  -22.514   30.158   44.179
| 52> C  -21.601   29.080   43.542
| 53> O  -22.295   27.785   43.717
| 54> H  -24.217   27.256   44.270
| 55> H  -24.407   29.504   43.296
| 56> O  -24.814   30.059   45.348
| 57> H  -22.545   31.079   43.589
| 58> H  -22.164   30.416   45.185
| 59> H  -20.617   29.027   44.023
| 60> H  -21.464   29.230   42.468
| 61> H  -24.315   30.018   46.322
| 62> *
| 63>
| 64>                          ****END OF INPUT****
 Total Charge           Charge          ....    0
 Multiplicity           Mult            ....    1
 Number of Electrons    NEL             ....  102
FINAL SINGLE POINT ENERGY      -652.798266430946
FINAL SINGLE POINT ENERGY      -652.829449828108
FINAL SINGLE POINT ENERGY      -652.845130720231
FINAL SINGLE POINT ENERGY      -652.847557461145
FINAL SINGLE POINT ENERGY      -652.847969433845
FINAL SINGLE POINT ENERGY      -652.848082290386
FINAL SINGLE POINT ENERGY      -652.848090429979
FINAL SINGLE POINT ENERGY      -652.848090599644
                    ***********************HURRAY********************

CARTESIAN COORDINATES (ANGSTROEM)
---------------------------------
  C    -21.081719   26.252488   46.354754
  C    -20.081642   27.378600   46.073545
  C    -19.971779   28.071816   47.460494
  C    -20.101507   26.877684   48.437756
  O    -20.697715   25.772960   47.659518
  H    -20.993616   25.397658   45.684244
  H    -19.123978   26.921418   45.802506
  H    -20.390627   28.029868   45.259382
  H    -19.023873   28.604905   47.584861
  H    -20.780930   28.794194   47.612182
  H    -20.741307   27.095219   49.298066
  H    -19.129307   26.526188   48.796046
  C    -23.082119   27.876523   46.073566
  H    -24.028779   27.885301   46.621635
  H    -22.458074   28.697602   46.454289
  O    -22.496561   26.583042   46.351474
  C    -23.389828   28.063190   44.582920
  C    -24.033694   29.410226   44.209215
  C    -22.782635   30.318293   44.014487
  C    -21.745404   29.349293   43.408345
  O    -22.225155   27.969656   43.703618
  H    -24.027451   27.223319   44.288504
  H    -24.578361   29.303608   43.269093
  O    -25.018241   29.912442   45.143980
  H    -22.989496   31.177644   43.371324
  H    -22.451344   30.697900   44.990493
  H    -20.742350   29.483496   43.826149
  H    -21.683387   29.432668   42.319505
  H    -24.586122   30.237801   45.960047

 Multiplicity           Mult            ....    1
 Number of Electrons    NEL             ....  102
 Basis Dimension        Dim             ....  149

ORBITAL ENERGIES
----------------

  NO   OCC          E(Eh)            E(eV)
   0   2.0000     -19.155599      -521.2503
   1   2.0000     -19.149771      -521.0918
   2   2.0000     -19.133896      -520.6598
   3   2.0000     -19.132779      -520.6294
   4   2.0000     -10.273695      -279.5615
   5   2.0000     -10.251385      -278.9544
   6   2.0000     -10.240433      -278.6563
   7   2.0000     -10.235801      -278.5303
   8   2.0000     -10.233272      -278.4615
   9   2.0000     -10.223911      -278.2068
  10   2.0000     -10.203187      -277.6428
  11   2.0000     -10.191921      -277.3363
  12   2.0000     -10.185549      -277.1629
  13   2.0000      -1.046438       -28.4750
  14   2.0000      -1.038817       -28.2677
  15   2.0000      -1.023213       -27.8430
  16   2.0000      -0.988318       -26.8935
  17   2.0000      -0.790252       -21.5039
  18   2.0000      -0.785560       -21.3762
  19   2.0000      -0.773991       -21.0614
  20   2.0000      -0.732933       -19.9441
  21   2.0000      -0.688110       -18.7244
  22   2.0000      -0.619357       -16.8535
  23   2.0000      -0.603274       -16.4159
  24   2.0000      -0.599546       -16.3145
  25   2.0000      -0.567941       -15.4545
  26   2.0000      -0.532026       -14.4772
  27   2.0000      -0.516832       -14.0637
  28   2.0000      -0.505248       -13.7485
  29   2.0000      -0.488433       -13.2909
  30   2.0000      -0.469357       -12.7719
  31   2.0000      -0.462077       -12.5738
  32   2.0000      -0.451376       -12.2826
  33   2.0000      -0.439143       -11.9497
  34   2.0000      -0.430582       -11.7167
  35   2.0000      -0.425446       -11.5770
  36   2.0000      -0.409875       -11.1533
  37   2.0000      -0.402589       -10.9550
  38   2.0000      -0.386547       -10.5185
  39   2.0000      -0.377603       -10.2751
  40   2.0000      -0.360351        -9.8057
  41   2.0000      -0.356996        -9.7144
  42   2.0000      -0.349724        -9.5165
  43   2.0000      -0.339527        -9.2390
  44   2.0000      -0.322210        -8.7678
  45   2.0000      -0.308678        -8.3996
  46   2.0000      -0.284980        -7.7547
  47   2.0000      -0.276296        -7.5184
  48   2.0000      -0.273696        -7.4476
  49   2.0000      -0.253252        -6.8913
  50   2.0000      -0.237639        -6.4665
  51   0.0000       0.042546         1.1577
  52   0.0000       0.060481         1.6458
  53   0.0000       0.082860         2.2547
  54   0.0000       0.091764         2.4970
  55   0.0000       0.097679         2.6580

MULLIKEN ATOMIC CHARGES
-----------------------
   0 C :    0.326913
   1 C :   -0.306729
   2 C :   -0.314382
   3 C :    0.000755
   4 O :   -0.496046
   5 H :    0.164944
   6 H :    0.152779
   7 H :    0.167556
   8 H :    0.142081
   9 H :    0.142464
  10 H :    0.145121
  11 H :    0.142964
  12 C :   -0.015745
  13 H :    0.162091
  14 H :    0.103791
  15 O :   -0.529395
  16 C :    0.093820
  17 C :    0.079681
  18 C :   -0.315061
  19 C :   -0.023029
  20 O :   -0.512417
  21 H :    0.168748
  22 H :    0.173019
  23 O :   -0.597480
  24 H :    0.161022
  25 H :    0.130824
  26 H :    0.136610
  27 H :    0.158677
  28 H :    0.356425
Sum of atomic charges:   -0.0000000

LOEWDIN ATOMIC CHARGES
----------------------
   0 C :    0.189174
   1 C :   -0.232994
   2 C :   -0.223773
   3 C :   -0.030032
   4 O :   -0.313337
   5 H :    0.111513
   6 H :    0.122456
   7 H :    0.124376
   8 H :    0.114006
   9 H :    0.103342
  10 H :    0.103496
  11 H :    0.102741
  12 C :   -0.044770
  13 H :    0.120799
  14 H :    0.081184
  15 O :   -0.325466
  16 C :    0.007557
  17 C :    0.034897
  18 C :   -0.240247
  19 C :   -0.034691
  20 O :   -0.320851
  21 H :    0.120796
  22 H :    0.121743
  23 O :   -0.404982
  24 H :    0.124707
  25 H :    0.103202
  26 H :    0.096821
  27 H :    0.110011
  28 H :    0.278324

  Mayer bond orders larger than 0.100000
B(  0-C ,  1-C ) :   0.9329 B(  0-C ,  4-O ) :   0.9123 B(  0-C ,  5-H ) :   0.9315
B(  0-C , 15-O ) :   0.8565 B(  1-C ,  2-C ) :   0.9501 B(  1-C ,  6-H ) :   0.9359
B(  1-C ,  7-H ) :   0.9081 B(  2-C ,  3-C ) :   0.9479 B(  2-C ,  8-H ) :   0.9460
B(  2-C ,  9-H ) :   0.9394 B(  3-C ,  4-O ) :   0.8502 B(  3-C , 10-H ) :   0.9348
B(  3-C , 11-H ) :   0.9392 B( 12-C , 13-H ) :   0.9200 B( 12-C , 14-H ) :   0.9084
B( 12-C , 15-O ) :   0.8688 B( 12-C , 16-C ) :   0.8897 B( 16-C , 17-C ) :   0.8667
B( 16-C , 20-O ) :   0.8590 B( 16-C , 21-H ) :   0.9286 B( 17-C , 18-C ) :   0.9233
B( 17-C , 22-H ) :   0.9315 B( 17-C , 23-O ) :   0.9006 B( 18-C , 19-C ) :   0.9411
B( 18-C , 24-H ) :   0.9410 B( 18-C , 25-H ) :   0.9413 B( 19-C , 20-O ) :   0.8445
B( 19-C , 26-H ) :   0.9217 B( 19-C , 27-H ) :   0.9383 B( 23-O , 28-H ) :   0.7980

FINAL SINGLE POINT ENERGY      -652.848089206672

DIPOLE MOMENT
-------------
                                X             Y             Z
Electronic contribution:     -4.16245      -5.23886      -0.64872
Nuclear contribution   :      5.08540       7.13259       0.53158
                        -----------------------------------------
Total Dipole Moment    :      0.92294       1.89373      -0.11714
                        -----------------------------------------
Magnitude (a.u.)       :      2.10992
Magnitude (Debye)      :      5.36299

Rotational constants in cm-1:     0.050064     0.015020     0.014119
Rotational constants in MHz :  1500.870623   450.275554   423.272462

                             ****ORCA TERMINATED NORMALLY****
TOTAL RUN TIME: 0 days 1 hours 20 minutes 3 seconds 842 msec
