                         Program Version 4.2.0 -  RELEASE  -
|  1> # Test redundant internal optimization
|  2> #
|  3> ! RKS B3LYP  Opt TightSCF SmallPrint
|  4>
|  5> %basis
|  6>         Basis "6-31G"
|  7> end
|  8>
|  9> %geom
| 10> Constraints
| 11> { D 4  0  15  12  210.0   C } # D for Dihedral angle
| 12> { D 0  15  12  16  135.0   C } # D for Dihedral angle
| 13> { D 0  4  3  2   C } # D for Dihedral angle
| 14> { D 4  3  2  1   C } # D for Dihedral angle
| 15> { D 3  2  1  0   C } # D for Dihedral angle
| 16> { D 2  1  0  4   C } # D for Dihedral angle
| 17> { D 1  0  4  3   C } # D for Dihedral angle
| 18> { D 16  20  19  18   C } # D for Dihedral angle
| 19> { D 20  19  18  17   C } # D for Dihedral angle
| 20> { D 19  18  17  16   C } # D for Dihedral angle
| 21> { D 18  17  16  20   C } # D for Dihedral angle
| 22> { D 17  16  20  19   C } # D for Dihedral angle
| 23> { D 15  12  16  20   C } # D for Dihedral angle
| 24> end
| 25> end
| 26>
| 27>
| 28> #%pal
| 29> #nprocs 8
| 30> #end
| 31>
| 32> * xyz 0 1
| 33> C  -21.048   26.222   46.251
| 34> C  -20.361   27.558   45.944
| 35> C  -20.329   28.222   47.341
| 36> C  -20.110   27.022   48.296
| 37> O  -20.473   25.807   47.535
| 38> H  -20.833   25.428   45.533
| 39> H  -19.344   27.382   45.576
| 40> H  -20.898   28.157   45.201
| 41> H  -19.543   28.978   47.434
| 42> H  -21.289   28.710   47.548
| 43> H  -20.733   27.082   49.195
| 44> H  -19.064   26.913   48.597
| 45> C  -23.389   26.110   45.076
| 46> H  -23.711   27.062   44.634
| 47> H  -22.762   25.587   44.343
| 48> O  -22.586   26.394   46.375
| 49> C  -24.650   25.238   45.328
| 50> C  -25.352   24.882   44.013
| 51> C  -24.468   23.726   43.488
| 52> C  -24.040   22.994   44.785
| 53> O  -24.270   23.940   45.897
| 54> H  -25.288   25.735   46.061
| 55> H  -26.371   24.530   44.213
| 56> O  -25.433   26.075   43.022
| 57> H  -24.999   23.067   42.793
| 58> H  -23.592   24.129   42.966
| 59> H  -22.984   22.704   44.774
| 60> H  -24.649   22.107   44.984
| 61> H  -24.425   26.445   42.806
| 62> *
| 63>
| 64>                          ****END OF INPUT****
 Total Charge           Charge          ....    0
 Multiplicity           Mult            ....    1
 Number of Electrons    NEL             ....  102
FINAL SINGLE POINT ENERGY      -652.824555652530
FINAL SINGLE POINT ENERGY      -652.848052903763
FINAL SINGLE POINT ENERGY      -652.852307310292
FINAL SINGLE POINT ENERGY      -652.853021018322
FINAL SINGLE POINT ENERGY      -652.853142763661
FINAL SINGLE POINT ENERGY      -652.853175695472
FINAL SINGLE POINT ENERGY      -652.853183946473
FINAL SINGLE POINT ENERGY      -652.853186278541
                    ***********************HURRAY********************

CARTESIAN COORDINATES (ANGSTROEM)
---------------------------------
  C    -21.031544   26.229837   46.172876
  C    -20.345225   27.577884   45.962682
  C    -20.423296   28.202402   47.377128
  C    -20.258802   26.977788   48.301854
  O    -20.556150   25.793372   47.453705
  H    -20.775927   25.452257   45.444390
  H    -19.301965   27.415456   45.665227
  H    -20.834179   28.187681   45.197639
  H    -19.654126   28.961822   47.545706
  H    -21.405242   28.663048   47.520952
  H    -20.948790   26.979911   49.148872
  H    -19.234626   26.852552   48.665851
  C    -23.213452   26.159473   45.008990
  H    -23.539763   27.119773   44.588038
  H    -22.567999   25.658280   44.269085
  O    -22.473954   26.385292   46.234834
  C    -24.435672   25.297171   45.322830
  C    -25.294380   24.944815   44.096898
  C    -24.532862   23.716556   43.514281
  C    -24.015430   23.004318   44.783306
  O    -24.074392   24.000236   45.884114
  H    -25.014583   25.804755   46.099898
  H    -26.293073   24.652118   44.427431
  O    -25.522239   26.027135   43.159822
  H    -25.178589   23.082054   42.901118
  H    -23.704552   24.064743   42.882225
  H    -22.987474   22.642400   44.682719
  H    -24.654615   22.166444   45.076623
  H    -24.721099   26.186427   42.619903

 Multiplicity           Mult            ....    1
 Number of Electrons    NEL             ....  102
 Basis Dimension        Dim             ....  149

ORBITAL ENERGIES
----------------

  NO   OCC          E(Eh)            E(eV)
   0   2.0000     -19.151097      -521.1278
   1   2.0000     -19.136079      -520.7192
   2   2.0000     -19.135395      -520.7006
   3   2.0000     -19.134999      -520.6898
   4   2.0000     -10.277021      -279.6519
   5   2.0000     -10.245508      -278.7945
   6   2.0000     -10.232860      -278.4503
   7   2.0000     -10.229488      -278.3585
   8   2.0000     -10.228402      -278.3290
   9   2.0000     -10.220584      -278.1162
  10   2.0000     -10.196797      -277.4690
  11   2.0000     -10.183654      -277.1113
  12   2.0000     -10.183023      -277.0941
  13   2.0000      -1.049841       -28.5676
  14   2.0000      -1.033606       -28.1259
  15   2.0000      -1.014972       -27.6188
  16   2.0000      -0.990876       -26.9631
  17   2.0000      -0.784724       -21.3534
  18   2.0000      -0.781841       -21.2750
  19   2.0000      -0.766614       -20.8606
  20   2.0000      -0.728446       -19.8220
  21   2.0000      -0.680612       -18.5204
  22   2.0000      -0.611768       -16.6471
  23   2.0000      -0.596995       -16.2451
  24   2.0000      -0.588773       -16.0213
  25   2.0000      -0.578218       -15.7341
  26   2.0000      -0.529053       -14.3963
  27   2.0000      -0.509051       -13.8520
  28   2.0000      -0.500020       -13.6062
  29   2.0000      -0.487368       -13.2619
  30   2.0000      -0.465951       -12.6792
  31   2.0000      -0.458396       -12.4736
  32   2.0000      -0.448941       -12.2163
  33   2.0000      -0.433913       -11.8074
  34   2.0000      -0.429483       -11.6868
  35   2.0000      -0.415446       -11.3049
  36   2.0000      -0.406984       -11.0746
  37   2.0000      -0.394095       -10.7239
  38   2.0000      -0.379866       -10.3367
  39   2.0000      -0.368046       -10.0150
  40   2.0000      -0.357295        -9.7225
  41   2.0000      -0.352778        -9.5996
  42   2.0000      -0.348207        -9.4752
  43   2.0000      -0.330978        -9.0064
  44   2.0000      -0.314349        -8.5539
  45   2.0000      -0.308522        -8.3953
  46   2.0000      -0.304585        -8.2882
  47   2.0000      -0.271313        -7.3828
  48   2.0000      -0.259603        -7.0642
  49   2.0000      -0.248709        -6.7677
  50   2.0000      -0.235265        -6.4019
  51   0.0000       0.048534         1.3207
  52   0.0000       0.069972         1.9040
  53   0.0000       0.089069         2.4237
  54   0.0000       0.093126         2.5341
  55   0.0000       0.108463         2.9514

MULLIKEN ATOMIC CHARGES
-----------------------
   0 C :    0.299076
   1 C :   -0.262992
   2 C :   -0.299897
   3 C :   -0.000971
   4 O :   -0.497664
   5 H :    0.134298
   6 H :    0.140844
   7 H :    0.139825
   8 H :    0.140340
   9 H :    0.162345
  10 H :    0.156485
  11 H :    0.139326
  12 C :   -0.017597
  13 H :    0.137258
  14 H :    0.108754
  15 O :   -0.503058
  16 C :    0.104750
  17 C :    0.078844
  18 C :   -0.328640
  19 C :   -0.010172
  20 O :   -0.500639
  21 H :    0.168048
  22 H :    0.169152
  23 O :   -0.598265
  24 H :    0.159450
  25 H :    0.130959
  26 H :    0.144278
  27 H :    0.151664
  28 H :    0.354201
Sum of atomic charges:   -0.0000000

LOEWDIN ATOMIC CHARGES
----------------------
   0 C :    0.181670
   1 C :   -0.229465
   2 C :   -0.217030
   3 C :   -0.025155
   4 O :   -0.302479
   5 H :    0.093993
   6 H :    0.111581
   7 H :    0.113190
   8 H :    0.113470
   9 H :    0.119308
  10 H :    0.110475
  11 H :    0.101171
  12 C :   -0.048674
  13 H :    0.099983
  14 H :    0.084662
  15 O :   -0.322589
  16 C :    0.019429
  17 C :    0.033780
  18 C :   -0.243661
  19 C :   -0.030219
  20 O :   -0.309780
  21 H :    0.121731
  22 H :    0.120460
  23 O :   -0.407731
  24 H :    0.123111
  25 H :    0.102183
  26 H :    0.102957
  27 H :    0.106985
  28 H :    0.276645

  Mayer bond orders larger than 0.100000
B(  0-C ,  1-C ) :   0.9300 B(  0-C ,  4-O ) :   0.9413 B(  0-C ,  5-H ) :   0.9179
B(  0-C , 15-O ) :   0.8367 B(  1-C ,  2-C ) :   0.9556 B(  1-C ,  6-H ) :   0.9346
B(  1-C ,  7-H ) :   0.9390 B(  2-C ,  3-C ) :   0.9549 B(  2-C ,  8-H ) :   0.9452
B(  2-C ,  9-H ) :   0.9436 B(  3-C ,  4-O ) :   0.8374 B(  3-C , 10-H ) :   0.9340
B(  3-C , 11-H ) :   0.9398 B( 12-C , 13-H ) :   0.9096 B( 12-C , 14-H ) :   0.9159
B( 12-C , 15-O ) :   0.8553 B( 12-C , 16-C ) :   0.8975 B( 16-C , 17-C ) :   0.8711
B( 16-C , 20-O ) :   0.8733 B( 16-C , 21-H ) :   0.9297 B( 17-C , 18-C ) :   0.9242
B( 17-C , 22-H ) :   0.9323 B( 17-C , 23-O ) :   0.8957 B( 18-C , 19-C ) :   0.9391
B( 18-C , 24-H ) :   0.9417 B( 18-C , 25-H ) :   0.9402 B( 19-C , 20-O ) :   0.8524
B( 19-C , 26-H ) :   0.9311 B( 19-C , 27-H ) :   0.9375 B( 23-O , 28-H ) :   0.7993

FINAL SINGLE POINT ENERGY      -652.853186680560

DIPOLE MOMENT
-------------
                                X             Y             Z
Electronic contribution:     -2.95366      -1.93376       1.74846
Nuclear contribution   :      3.63604       2.27924      -3.01249
                        -----------------------------------------
Total Dipole Moment    :      0.68237       0.34548      -1.26403
                        -----------------------------------------
Magnitude (a.u.)       :      1.47742
Magnitude (Debye)      :      3.75530

Rotational constants in cm-1:     0.058210     0.012426     0.011216
Rotational constants in MHz :  1745.100981   372.529126   336.253839

                             ****ORCA TERMINATED NORMALLY****
TOTAL RUN TIME: 0 days 0 hours 24 minutes 4 seconds 571 msec
