                         Program Version 4.2.0 -  RELEASE  -
|  1> # Test redundant internal optimization
|  2> #
|  3> ! RKS B3LYP  Opt TightSCF SmallPrint
|  4>
|  5> %basis
|  6>         Basis "6-31G"
|  7> end
|  8>
|  9> %geom
| 10> Constraints
| 11> { D 4  0  15  12  165.0   C } # D for Dihedral angle
| 12> { D 0  15  12  16  195.0   C } # D for Dihedral angle
| 13> { D 0  4  3  2   C } # D for Dihedral angle
| 14> { D 4  3  2  1   C } # D for Dihedral angle
| 15> { D 3  2  1  0   C } # D for Dihedral angle
| 16> { D 2  1  0  4   C } # D for Dihedral angle
| 17> { D 1  0  4  3   C } # D for Dihedral angle
| 18> { D 16  20  19  18   C } # D for Dihedral angle
| 19> { D 20  19  18  17   C } # D for Dihedral angle
| 20> { D 19  18  17  16   C } # D for Dihedral angle
| 21> { D 18  17  16  20   C } # D for Dihedral angle
| 22> { D 17  16  20  19   C } # D for Dihedral angle
| 23> { D 15  12  16  20   C } # D for Dihedral angle
| 24> end
| 25> end
| 26>
| 27>
| 28> #%pal
| 29> #nprocs 8
| 30> #end
| 31>
| 32> * xyz 0 1
| 33> C  -21.048   26.222   46.251
| 34> C  -20.361   27.558   45.944
| 35> C  -20.329   28.222   47.341
| 36> C  -20.110   27.022   48.296
| 37> O  -20.473   25.807   47.535
| 38> H  -20.833   25.428   45.533
| 39> H  -19.344   27.382   45.576
| 40> H  -20.898   28.157   45.201
| 41> H  -19.543   28.978   47.434
| 42> H  -21.289   28.710   47.548
| 43> H  -20.733   27.082   49.195
| 44> H  -19.064   26.913   48.597
| 45> C  -23.260   27.170   45.210
| 46> H  -22.660   28.057   44.972
| 47> H  -23.315   26.542   44.312
| 48> O  -22.586   26.394   46.375
| 49> C  -24.703   27.633   45.553
| 50> C  -25.579   26.452   45.985
| 51> C  -25.131   26.249   47.452
| 52> C  -24.847   27.693   47.936
| 53> O  -24.693   28.522   46.720
| 54> H  -25.102   28.209   44.716
| 55> H  -26.637   26.732   45.939
| 56> O  -25.370   25.185   45.112
| 57> H  -25.888   25.746   48.062
| 58> H  -24.217   25.644   47.487
| 59> H  -23.933   27.763   48.536
| 60> H  -25.679   28.114   48.508
| 61> H  -24.316   24.886   45.143
| 62> *
| 63>
| 64>                          ****END OF INPUT****
 Total Charge           Charge          ....    0
 Multiplicity           Mult            ....    1
 Number of Electrons    NEL             ....  102
FINAL SINGLE POINT ENERGY      -652.829809827591
FINAL SINGLE POINT ENERGY      -652.853489123964
FINAL SINGLE POINT ENERGY      -652.858922516000
FINAL SINGLE POINT ENERGY      -652.860470346991
FINAL SINGLE POINT ENERGY      -652.860653948004
FINAL SINGLE POINT ENERGY      -652.860683344082
                    ***********************HURRAY********************

CARTESIAN COORDINATES (ANGSTROEM)
---------------------------------
  C    -21.061234   26.277050   46.152826
  C    -20.273397   27.563737   45.912063
  C    -20.363534   28.259977   47.293415
  C    -20.322784   27.072807   48.276161
  O    -20.668737   25.871821   47.471036
  H    -20.836134   25.452460   45.470010
  H    -19.237023   27.291734   45.679830
  H    -20.643672   28.183700   45.093013
  H    -19.545912   28.967713   47.458513
  H    -21.312815   28.799031   47.374326
  H    -21.042786   27.163530   49.093408
  H    -19.325844   26.893222   48.688821
  C    -23.188597   27.203672   45.151360
  H    -22.649872   28.122873   44.895494
  H    -23.271587   26.584237   44.246100
  O    -22.508680   26.481322   46.214334
  C    -24.585627   27.599882   45.619824
  C    -25.509925   26.436031   46.016345
  C    -25.097531   26.188929   47.500523
  C    -24.781894   27.612449   48.004513
  O    -24.575901   28.457290   46.797115
  H    -25.030964   28.193796   44.812057
  H    -26.553706   26.748103   45.938289
  O    -25.397681   25.271941   45.161244
  H    -25.896269   25.707194   48.072615
  H    -24.201713   25.564897   47.523865
  H    -23.875638   27.648780   48.614564
  H    -25.613104   28.058022   48.560179
  H    -24.568442   24.795801   45.377155

 Multiplicity           Mult            ....    1
 Number of Electrons    NEL             ....  102
 Basis Dimension        Dim             ....  149

ORBITAL ENERGIES
----------------

  NO   OCC          E(Eh)            E(eV)
   0   2.0000     -19.148242      -521.0502
   1   2.0000     -19.145715      -520.9814
   2   2.0000     -19.136892      -520.7413
   3   2.0000     -19.133955      -520.6614
   4   2.0000     -10.287306      -279.9318
   5   2.0000     -10.233950      -278.4799
   6   2.0000     -10.232890      -278.4511
   7   2.0000     -10.229925      -278.3704
   8   2.0000     -10.229560      -278.3605
   9   2.0000     -10.219874      -278.0969
  10   2.0000     -10.193673      -277.3839
  11   2.0000     -10.190044      -277.2852
  12   2.0000     -10.174642      -276.8661
  13   2.0000      -1.059365       -28.8268
  14   2.0000      -1.025541       -27.9064
  15   2.0000      -1.007587       -27.4178
  16   2.0000      -0.996040       -27.1036
  17   2.0000      -0.791354       -21.5338
  18   2.0000      -0.772948       -21.0330
  19   2.0000      -0.763775       -20.7834
  20   2.0000      -0.735130       -20.0039
  21   2.0000      -0.679474       -18.4894
  22   2.0000      -0.606026       -16.4908
  23   2.0000      -0.599830       -16.3222
  24   2.0000      -0.596196       -16.2233
  25   2.0000      -0.565126       -15.3779
  26   2.0000      -0.531803       -14.4711
  27   2.0000      -0.506779       -13.7901
  28   2.0000      -0.500023       -13.6063
  29   2.0000      -0.489640       -13.3238
  30   2.0000      -0.473129       -12.8745
  31   2.0000      -0.457707       -12.4548
  32   2.0000      -0.449757       -12.2385
  33   2.0000      -0.429706       -11.6929
  34   2.0000      -0.421347       -11.4654
  35   2.0000      -0.412468       -11.2238
  36   2.0000      -0.401620       -10.9286
  37   2.0000      -0.398449       -10.8423
  38   2.0000      -0.382917       -10.4197
  39   2.0000      -0.369652       -10.0587
  40   2.0000      -0.359956        -9.7949
  41   2.0000      -0.355277        -9.6676
  42   2.0000      -0.351126        -9.5546
  43   2.0000      -0.324270        -8.8238
  44   2.0000      -0.316159        -8.6031
  45   2.0000      -0.307626        -8.3709
  46   2.0000      -0.301486        -8.2038
  47   2.0000      -0.269351        -7.3294
  48   2.0000      -0.260334        -7.0840
  49   2.0000      -0.258393        -7.0312
  50   2.0000      -0.239235        -6.5099
  51   0.0000       0.064788         1.7630
  52   0.0000       0.078172         2.1272
  53   0.0000       0.093950         2.5565
  54   0.0000       0.098907         2.6914
  55   0.0000       0.100725         2.7409

MULLIKEN ATOMIC CHARGES
-----------------------
   0 C :    0.316957
   1 C :   -0.293393
   2 C :   -0.304729
   3 C :   -0.003228
   4 O :   -0.502057
   5 H :    0.144692
   6 H :    0.152384
   7 H :    0.147989
   8 H :    0.144594
   9 H :    0.176236
  10 H :    0.152141
  11 H :    0.144708
  12 C :   -0.018813
  13 H :    0.141030
  14 H :    0.135810
  15 O :   -0.536875
  16 C :    0.091987
  17 C :    0.087679
  18 C :   -0.316946
  19 C :   -0.004964
  20 O :   -0.526303
  21 H :    0.147355
  22 H :    0.159383
  23 O :   -0.609540
  24 H :    0.142040
  25 H :    0.181825
  26 H :    0.145659
  27 H :    0.139403
  28 H :    0.364974
Sum of atomic charges:   -0.0000000

LOEWDIN ATOMIC CHARGES
----------------------
   0 C :    0.184463
   1 C :   -0.232549
   2 C :   -0.218318
   3 C :   -0.025461
   4 O :   -0.305682
   5 H :    0.098790
   6 H :    0.118943
   7 H :    0.115869
   8 H :    0.115937
   9 H :    0.124221
  10 H :    0.107205
  11 H :    0.104045
  12 C :   -0.050980
  13 H :    0.100904
  14 H :    0.098038
  15 O :   -0.343124
  16 C :    0.020049
  17 C :    0.038582
  18 C :   -0.244527
  19 C :   -0.024098
  20 O :   -0.326559
  21 H :    0.112962
  22 H :    0.114782
  23 O :   -0.413361
  24 H :    0.113979
  25 H :    0.129668
  26 H :    0.103363
  27 H :    0.099619
  28 H :    0.283241

  Mayer bond orders larger than 0.100000
B(  0-C ,  1-C ) :   0.9339 B(  0-C ,  4-O ) :   0.9405 B(  0-C ,  5-H ) :   0.9236
B(  0-C , 15-O ) :   0.8198 B(  1-C ,  2-C ) :   0.9489 B(  1-C ,  6-H ) :   0.9335
B(  1-C ,  7-H ) :   0.9267 B(  2-C ,  3-C ) :   0.9556 B(  2-C ,  8-H ) :   0.9447
B(  2-C ,  9-H ) :   0.9377 B(  3-C ,  4-O ) :   0.8312 B(  3-C , 10-H ) :   0.9334
B(  3-C , 11-H ) :   0.9396 B( 12-C , 13-H ) :   0.9095 B( 12-C , 14-H ) :   0.9045
B( 12-C , 15-O ) :   0.8332 B( 12-C , 16-C ) :   0.9116 B( 16-C , 17-C ) :   0.8855
B( 16-C , 20-O ) :   0.8818 B( 16-C , 21-H ) :   0.9295 B( 17-C , 18-C ) :   0.9366
B( 17-C , 22-H ) :   0.9366 B( 17-C , 23-O ) :   0.9013 B( 18-C , 19-C ) :   0.9459
B( 18-C , 24-H ) :   0.9406 B( 18-C , 25-H ) :   0.9210 B( 19-C , 20-O ) :   0.8337
B( 19-C , 26-H ) :   0.9311 B( 19-C , 27-H ) :   0.9381 B( 23-O , 28-H ) :   0.7922

FINAL SINGLE POINT ENERGY      -652.860674153146

DIPOLE MOMENT
-------------
                                X             Y             Z
Electronic contribution:     -2.55154      -2.64257      -1.57803
Nuclear contribution   :      3.47966       3.12514       1.56394
                        -----------------------------------------
Total Dipole Moment    :      0.92813       0.48257      -0.01409
                        -----------------------------------------
Magnitude (a.u.)       :      1.04618
Magnitude (Debye)      :      2.65918

Rotational constants in cm-1:     0.046169     0.016943     0.015945
Rotational constants in MHz :  1384.097828   507.929920   478.013958

                             ****ORCA TERMINATED NORMALLY****
TOTAL RUN TIME: 0 days 0 hours 38 minutes 21 seconds 590 msec
