                         Program Version 4.2.0 -  RELEASE  -
|  1> # Test redundant internal optimization
|  2> #
|  3> ! RKS B3LYP  Opt TightSCF SmallPrint
|  4>
|  5> %basis
|  6>         Basis "6-31G"
|  7> end
|  8>
|  9> %geom
| 10> Constraints
| 11> { D 4  0  15  12  210.0   C } # D for Dihedral angle
| 12> { D 0  15  12  16  225.0   C } # D for Dihedral angle
| 13> { D 0  4  3  2   C } # D for Dihedral angle
| 14> { D 4  3  2  1   C } # D for Dihedral angle
| 15> { D 3  2  1  0   C } # D for Dihedral angle
| 16> { D 2  1  0  4   C } # D for Dihedral angle
| 17> { D 1  0  4  3   C } # D for Dihedral angle
| 18> { D 16  20  19  18   C } # D for Dihedral angle
| 19> { D 20  19  18  17   C } # D for Dihedral angle
| 20> { D 19  18  17  16   C } # D for Dihedral angle
| 21> { D 18  17  16  20   C } # D for Dihedral angle
| 22> { D 17  16  20  19   C } # D for Dihedral angle
| 23> { D 15  12  16  20   C } # D for Dihedral angle
| 24> end
| 25> end
| 26>
| 27>
| 28> #%pal
| 29> #nprocs 8
| 30> #end
| 31>
| 32> * xyz 0 1
| 33> C  -21.048   26.222   46.251
| 34> C  -20.361   27.558   45.944
| 35> C  -20.329   28.222   47.341
| 36> C  -20.110   27.022   48.296
| 37> O  -20.473   25.807   47.535
| 38> H  -20.833   25.428   45.533
| 39> H  -19.344   27.382   45.576
| 40> H  -20.898   28.157   45.201
| 41> H  -19.543   28.978   47.434
| 42> H  -21.289   28.710   47.548
| 43> H  -20.733   27.082   49.195
| 44> H  -19.064   26.913   48.597
| 45> C  -23.389   26.110   45.076
| 46> H  -22.700   26.085   44.223
| 47> H  -23.892   25.137   45.140
| 48> O  -22.586   26.394   46.375
| 49> C  -24.475   27.185   44.795
| 50> C  -25.323   26.814   43.573
| 51> C  -26.293   25.768   44.171
| 52> C  -26.536   26.294   45.607
| 53> O  -25.439   27.241   45.899
| 54> H  -24.000   28.167   44.734
| 55> O  -26.102   28.058   43.066
| 56> H  -24.729   26.416   42.742
| 57> H  -27.222   25.674   43.598
| 58> H  -25.815   24.781   44.197
| 59> H  -26.527   25.493   46.355
| 60> H  -27.474   26.850   45.695
| 61> H  -26.704   28.473   43.882
| 62> *
| 63>
| 64>                          ****END OF INPUT****
 Total Charge           Charge          ....    0
 Multiplicity           Mult            ....    1
 Number of Electrons    NEL             ....  102
FINAL SINGLE POINT ENERGY      -652.829845974194
FINAL SINGLE POINT ENERGY      -652.852574099338
FINAL SINGLE POINT ENERGY      -652.856052523995
FINAL SINGLE POINT ENERGY      -652.856676005265
FINAL SINGLE POINT ENERGY      -652.856752712161
FINAL SINGLE POINT ENERGY      -652.856760615035
                    ***********************HURRAY********************

CARTESIAN COORDINATES (ANGSTROEM)
---------------------------------
  C    -21.080415   26.204767   46.164862
  C    -20.450796   27.566969   45.882489
  C    -20.516567   28.244768   47.272038
  C    -20.283071   27.067034   48.241091
  O    -20.557035   25.837665   47.449271
  H    -20.817086   25.407106   45.462730
  H    -19.410276   27.429661   45.563451
  H    -20.980100   28.127034   45.106540
  H    -19.772808   29.038451   47.388817
  H    -21.511816   28.672583   47.423432
  H    -20.952415   27.079646   49.104236
  H    -19.246426   26.993028   48.582853
  C    -23.291882   26.017824   45.071985
  H    -22.639254   26.002832   44.185302
  H    -23.739988   25.021935   45.184664
  O    -22.529549   26.321205   46.271006
  C    -24.366861   27.083564   44.867029
  C    -25.265576   26.832038   43.646986
  C    -26.299919   25.825914   44.218341
  C    -26.474451   26.299884   45.682963
  O    -25.302015   27.153476   45.991129
  H    -23.883869   28.063988   44.808319
  O    -25.897692   28.066197   43.208237
  H    -24.734682   26.455229   42.771446
  H    -27.228503   25.858673   43.643526
  H    -25.901912   24.806193   44.174213
  H    -26.508343   25.470991   46.396078
  H    -27.367933   26.916617   45.820936
  H    -26.219762   28.555726   43.995033

 Multiplicity           Mult            ....    1
 Number of Electrons    NEL             ....  102
 Basis Dimension        Dim             ....  149

ORBITAL ENERGIES
----------------

  NO   OCC          E(Eh)            E(eV)
   0   2.0000     -19.141677      -520.8715
   1   2.0000     -19.141591      -520.8692
   2   2.0000     -19.137629      -520.7614
   3   2.0000     -19.137023      -520.7449
   4   2.0000     -10.278524      -279.6928
   5   2.0000     -10.245690      -278.7994
   6   2.0000     -10.236523      -278.5500
   7   2.0000     -10.235778      -278.5297
   8   2.0000     -10.230762      -278.3932
   9   2.0000     -10.221568      -278.1430
  10   2.0000     -10.191598      -277.3275
  11   2.0000     -10.184810      -277.1428
  12   2.0000     -10.182787      -277.0877
  13   2.0000      -1.051040       -28.6002
  14   2.0000      -1.037780       -28.2394
  15   2.0000      -1.008154       -27.4333
  16   2.0000      -0.991643       -26.9840
  17   2.0000      -0.788197       -21.4479
  18   2.0000      -0.782494       -21.2927
  19   2.0000      -0.768724       -20.9180
  20   2.0000      -0.730415       -19.8756
  21   2.0000      -0.675749       -18.3881
  22   2.0000      -0.606774       -16.5112
  23   2.0000      -0.597145       -16.2491
  24   2.0000      -0.593565       -16.1517
  25   2.0000      -0.584451       -15.9037
  26   2.0000      -0.524597       -14.2750
  27   2.0000      -0.513351       -13.9690
  28   2.0000      -0.497386       -13.5345
  29   2.0000      -0.489120       -13.3096
  30   2.0000      -0.474174       -12.9029
  31   2.0000      -0.458569       -12.4783
  32   2.0000      -0.453750       -12.3472
  33   2.0000      -0.439917       -11.9707
  34   2.0000      -0.430097       -11.7035
  35   2.0000      -0.408110       -11.1053
  36   2.0000      -0.399617       -10.8741
  37   2.0000      -0.395495       -10.7620
  38   2.0000      -0.374786       -10.1984
  39   2.0000      -0.372814       -10.1448
  40   2.0000      -0.361187        -9.8284
  41   2.0000      -0.355566        -9.6754
  42   2.0000      -0.351274        -9.5587
  43   2.0000      -0.332599        -9.0505
  44   2.0000      -0.312234        -8.4963
  45   2.0000      -0.309573        -8.4239
  46   2.0000      -0.302427        -8.2295
  47   2.0000      -0.273836        -7.4515
  48   2.0000      -0.260480        -7.0880
  49   2.0000      -0.255513        -6.9529
  50   2.0000      -0.237063        -6.4508
  51   0.0000       0.064912         1.7663
  52   0.0000       0.082381         2.2417
  53   0.0000       0.083678         2.2770
  54   0.0000       0.090346         2.4584
  55   0.0000       0.099402         2.7049

MULLIKEN ATOMIC CHARGES
-----------------------
   0 C :    0.285181
   1 C :   -0.261243
   2 C :   -0.299826
   3 C :   -0.000903
   4 O :   -0.501605
   5 H :    0.136600
   6 H :    0.141960
   7 H :    0.140482
   8 H :    0.140480
   9 H :    0.167923
  10 H :    0.157157
  11 H :    0.139865
  12 C :   -0.003426
  13 H :    0.121611
  14 H :    0.140666
  15 O :   -0.496863
  16 C :    0.071478
  17 C :    0.076791
  18 C :   -0.298408
  19 C :   -0.029585
  20 O :   -0.507842
  21 H :    0.159561
  22 O :   -0.601988
  23 H :    0.148434
  24 H :    0.164385
  25 H :    0.144015
  26 H :    0.154732
  27 H :    0.144304
  28 H :    0.366064
Sum of atomic charges:   -0.0000000

LOEWDIN ATOMIC CHARGES
----------------------
   0 C :    0.177881
   1 C :   -0.227947
   2 C :   -0.216893
   3 C :   -0.024541
   4 O :   -0.306035
   5 H :    0.095570
   6 H :    0.111976
   7 H :    0.113098
   8 H :    0.113806
   9 H :    0.122123
  10 H :    0.111020
  11 H :    0.101386
  12 C :   -0.040210
  13 H :    0.094268
  14 H :    0.101660
  15 O :   -0.325739
  16 C :    0.014406
  17 C :    0.034052
  18 C :   -0.241166
  19 C :   -0.038159
  20 O :   -0.319709
  21 H :    0.115600
  22 O :   -0.414487
  23 H :    0.113773
  24 H :    0.127086
  25 H :    0.112784
  26 H :    0.108331
  27 H :    0.101966
  28 H :    0.284101

  Mayer bond orders larger than 0.100000
B(  0-C ,  1-C ) :   0.9309 B(  0-C ,  4-O ) :   0.9406 B(  0-C ,  5-H ) :   0.9199
B(  0-C , 15-O ) :   0.8379 B(  1-C ,  2-C ) :   0.9548 B(  1-C ,  6-H ) :   0.9340
B(  1-C ,  7-H ) :   0.9380 B(  2-C ,  3-C ) :   0.9555 B(  2-C ,  8-H ) :   0.9450
B(  2-C ,  9-H ) :   0.9418 B(  3-C ,  4-O ) :   0.8344 B(  3-C , 10-H ) :   0.9341
B(  3-C , 11-H ) :   0.9398 B( 12-C , 13-H ) :   0.9120 B( 12-C , 14-H ) :   0.9236
B( 12-C , 15-O ) :   0.8479 B( 12-C , 16-C ) :   0.8929 B( 16-C , 17-C ) :   0.8973
B( 16-C , 20-O ) :   0.8698 B( 16-C , 21-H ) :   0.9252 B( 17-C , 18-C ) :   0.9109
B( 17-C , 22-O ) :   0.8924 B( 17-C , 23-H ) :   0.9339 B( 18-C , 19-C ) :   0.9411
B( 18-C , 24-H ) :   0.9369 B( 18-C , 25-H ) :   0.9339 B( 19-C , 20-O ) :   0.8503
B( 19-C , 26-H ) :   0.9330 B( 19-C , 27-H ) :   0.9381 B( 22-O , 28-H ) :   0.7934

FINAL SINGLE POINT ENERGY      -652.856762099798

DIPOLE MOMENT
-------------
                                X             Y             Z
Electronic contribution:     -1.27431      -0.74131       0.71391
Nuclear contribution   :      1.38520       0.77194      -1.27097
                        -----------------------------------------
Total Dipole Moment    :      0.11090       0.03063      -0.55706
                        -----------------------------------------
Magnitude (a.u.)       :      0.56882
Magnitude (Debye)      :      1.44583

Rotational constants in cm-1:     0.062027     0.011619     0.011202
Rotational constants in MHz :  1859.508296   348.338521   335.819514

                             ****ORCA TERMINATED NORMALLY****
TOTAL RUN TIME: 0 days 0 hours 19 minutes 42 seconds 512 msec
