                         Program Version 4.2.0 -  RELEASE  -
|  1> # Test redundant internal optimization
|  2> #
|  3> ! RKS B3LYP  Opt TightSCF SmallPrint
|  4>
|  5> %basis
|  6>         Basis "6-31G"
|  7> end
|  8>
|  9> %geom
| 10> Constraints
| 11> { D 4  0  15  12  330.0   C } # D for Dihedral angle
| 12> { D 0  15  12  16  225.0   C } # D for Dihedral angle
| 13> { D 0  4  3  2   C } # D for Dihedral angle
| 14> { D 4  3  2  1   C } # D for Dihedral angle
| 15> { D 3  2  1  0   C } # D for Dihedral angle
| 16> { D 2  1  0  4   C } # D for Dihedral angle
| 17> { D 1  0  4  3   C } # D for Dihedral angle
| 18> { D 16  20  19  18   C } # D for Dihedral angle
| 19> { D 20  19  18  17   C } # D for Dihedral angle
| 20> { D 19  18  17  16   C } # D for Dihedral angle
| 21> { D 18  17  16  20   C } # D for Dihedral angle
| 22> { D 17  16  20  19   C } # D for Dihedral angle
| 23> { D 15  12  16  20   C } # D for Dihedral angle
| 24> end
| 25> end
| 26>
| 27>
| 28> #%pal
| 29> #nprocs 8
| 30> #end
| 31>
| 32> * xyz 0 1
| 33> C  -21.048   26.222   46.251
| 34> C  -20.361   27.558   45.944
| 35> C  -20.329   28.222   47.341
| 36> C  -20.110   27.022   48.296
| 37> O  -20.473   25.807   47.535
| 38> H  -20.833   25.428   45.533
| 39> H  -19.344   27.382   45.576
| 40> H  -20.898   28.157   45.201
| 41> H  -19.543   28.978   47.434
| 42> H  -21.289   28.710   47.548
| 43> H  -20.733   27.082   49.195
| 44> H  -19.064   26.913   48.597
| 45> C  -23.271   25.476   47.424
| 46> H  -22.576   24.679   47.716
| 47> H  -23.533   26.048   48.323
| 48> O  -22.586   26.394   46.375
| 49> C  -24.571   24.816   46.887
| 50> C  -25.559   25.871   46.374
| 51> C  -24.969   26.202   44.982
| 52> C  -24.408   24.839   44.505
| 53> O  -24.280   23.991   45.710
| 54> H  -24.977   24.152   47.652
| 55> O  -26.976   25.250   46.235
| 56> H  -25.629   26.749   47.025
| 57> H  -25.714   26.611   44.292
| 58> H  -24.163   26.938   45.081
| 59> H  -23.428   24.933   44.026
| 60> H  -25.088   24.324   43.820
| 61> H  -26.930   24.369   45.586
| 62> *
| 63>
| 64>                          ****END OF INPUT****
 Total Charge           Charge          ....    0
 Multiplicity           Mult            ....    1
 Number of Electrons    NEL             ....  102
FINAL SINGLE POINT ENERGY      -652.838914473820
FINAL SINGLE POINT ENERGY      -652.861040322413
FINAL SINGLE POINT ENERGY      -652.865106953687
FINAL SINGLE POINT ENERGY      -652.866126212635
FINAL SINGLE POINT ENERGY      -652.866232262050
FINAL SINGLE POINT ENERGY      -652.866249888313
                    ***********************HURRAY********************

CARTESIAN COORDINATES (ANGSTROEM)
---------------------------------
  C    -21.061800   26.161571   46.315462
  C    -20.444153   27.520077   45.988076
  C    -20.386784   28.183692   47.381411
  C    -20.084358   27.000990   48.326757
  O    -20.434496   25.772345   47.556793
  H    -20.853196   25.353353   45.609483
  H    -19.439175   27.368760   45.577998
  H    -21.041833   28.082777   45.267692
  H    -19.626021   28.967872   47.443070
  H    -21.358601   28.628400   47.616464
  H    -20.674291   27.018789   49.246706
  H    -19.024005   26.914509   48.579341
  C    -23.206380   25.516999   47.411471
  H    -22.554172   24.707846   47.749943
  H    -23.456473   26.142331   48.279659
  O    -22.504588   26.334227   46.424596
  C    -24.481412   24.917652   46.822806
  C    -25.544257   25.900544   46.309148
  C    -25.026652   26.206663   44.879235
  C    -24.414145   24.856027   44.433564
  O    -24.194837   24.064560   45.667707
  H    -24.921273   24.269738   47.591749
  O    -26.860274   25.275869   46.300180
  H    -25.655034   26.790452   46.929162
  H    -25.843844   26.538746   44.232838
  H    -24.256858   26.978642   44.930510
  H    -23.456832   24.981560   43.920017
  H    -25.086927   24.274300   43.794048
  H    -26.790331   24.393708   45.878115

 Multiplicity           Mult            ....    1
 Number of Electrons    NEL             ....  102
 Basis Dimension        Dim             ....  149

ORBITAL ENERGIES
----------------

  NO   OCC          E(Eh)            E(eV)
   0   2.0000     -19.151237      -521.1317
   1   2.0000     -19.144294      -520.9427
   2   2.0000     -19.135403      -520.7008
   3   2.0000     -19.131430      -520.5927
   4   2.0000     -10.282173      -279.7921
   5   2.0000     -10.233126      -278.4575
   6   2.0000     -10.232889      -278.4511
   7   2.0000     -10.229290      -278.3531
   8   2.0000     -10.226293      -278.2716
   9   2.0000     -10.221317      -278.1362
  10   2.0000     -10.191775      -277.3323
  11   2.0000     -10.189763      -277.2776
  12   2.0000     -10.173559      -276.8366
  13   2.0000      -1.058177       -28.7945
  14   2.0000      -1.029307       -28.0089
  15   2.0000      -1.000839       -27.2342
  16   2.0000      -0.991676       -26.9849
  17   2.0000      -0.794721       -21.6254
  18   2.0000      -0.773734       -21.0544
  19   2.0000      -0.761733       -20.7278
  20   2.0000      -0.734040       -19.9742
  21   2.0000      -0.670640       -18.2490
  22   2.0000      -0.605965       -16.4891
  23   2.0000      -0.597777       -16.2663
  24   2.0000      -0.593785       -16.1577
  25   2.0000      -0.569177       -15.4881
  26   2.0000      -0.524849       -14.2819
  27   2.0000      -0.508444       -13.8355
  28   2.0000      -0.494847       -13.4655
  29   2.0000      -0.489047       -13.3076
  30   2.0000      -0.468178       -12.7398
  31   2.0000      -0.461095       -12.5470
  32   2.0000      -0.446588       -12.1523
  33   2.0000      -0.438213       -11.9244
  34   2.0000      -0.417872       -11.3709
  35   2.0000      -0.408509       -11.1161
  36   2.0000      -0.400879       -10.9085
  37   2.0000      -0.385035       -10.4773
  38   2.0000      -0.375150       -10.2084
  39   2.0000      -0.366607        -9.9759
  40   2.0000      -0.362433        -9.8623
  41   2.0000      -0.357687        -9.7331
  42   2.0000      -0.349035        -9.4977
  43   2.0000      -0.338206        -9.2031
  44   2.0000      -0.322177        -8.7669
  45   2.0000      -0.305291        -8.3074
  46   2.0000      -0.295798        -8.0491
  47   2.0000      -0.268897        -7.3171
  48   2.0000      -0.266735        -7.2582
  49   2.0000      -0.256685        -6.9847
  50   2.0000      -0.237824        -6.4715
  51   0.0000       0.067972         1.8496
  52   0.0000       0.080929         2.2022
  53   0.0000       0.102986         2.8024
  54   0.0000       0.104787         2.8514
  55   0.0000       0.105892         2.8815

MULLIKEN ATOMIC CHARGES
-----------------------
   0 C :    0.298791
   1 C :   -0.259791
   2 C :   -0.302016
   3 C :   -0.011990
   4 O :   -0.511574
   5 H :    0.159147
   6 H :    0.146456
   7 H :    0.157512
   8 H :    0.146174
   9 H :    0.158159
  10 H :    0.146980
  11 H :    0.149931
  12 C :   -0.002290
  13 H :    0.176039
  14 H :    0.125618
  15 O :   -0.544744
  16 C :    0.067145
  17 C :    0.074863
  18 C :   -0.285094
  19 C :   -0.024956
  20 O :   -0.527605
  21 H :    0.154005
  22 O :   -0.603583
  23 H :    0.149249
  24 H :    0.146669
  25 H :    0.172747
  26 H :    0.145131
  27 H :    0.136788
  28 H :    0.362242
Sum of atomic charges:   -0.0000000

LOEWDIN ATOMIC CHARGES
----------------------
   0 C :    0.180214
   1 C :   -0.215946
   2 C :   -0.217175
   3 C :   -0.029971
   4 O :   -0.320943
   5 H :    0.103969
   6 H :    0.114887
   7 H :    0.124167
   8 H :    0.116449
   9 H :    0.117075
  10 H :    0.104799
  11 H :    0.106794
  12 C :   -0.039521
  13 H :    0.122598
  14 H :    0.096608
  15 O :   -0.343949
  16 C :    0.011386
  17 C :    0.038120
  18 C :   -0.242573
  19 C :   -0.034698
  20 O :   -0.331845
  21 H :    0.114751
  22 O :   -0.418533
  23 H :    0.115017
  24 H :    0.117613
  25 H :    0.129213
  26 H :    0.103932
  27 H :    0.096094
  28 H :    0.281470

  Mayer bond orders larger than 0.100000
B(  0-C ,  1-C ) :   0.9451 B(  0-C ,  4-O ) :   0.9062 B(  0-C ,  5-H ) :   0.9224
B(  0-C , 15-O ) :   0.8356 B(  1-C ,  2-C ) :   0.9525 B(  1-C ,  6-H ) :   0.9371
B(  1-C ,  7-H ) :   0.9361 B(  2-C ,  3-C ) :   0.9560 B(  2-C ,  8-H ) :   0.9446
B(  2-C ,  9-H ) :   0.9451 B(  3-C ,  4-O ) :   0.8298 B(  3-C , 10-H ) :   0.9351
B(  3-C , 11-H ) :   0.9403 B( 12-C , 13-H ) :   0.9111 B( 12-C , 14-H ) :   0.9205
B( 12-C , 15-O ) :   0.8339 B( 12-C , 16-C ) :   0.9014 B( 16-C , 17-C ) :   0.9089
B( 16-C , 20-O ) :   0.8672 B( 16-C , 21-H ) :   0.9212 B( 17-C , 18-C ) :   0.9250
B( 17-C , 22-O ) :   0.8917 B( 17-C , 23-H ) :   0.9360 B( 18-C , 19-C ) :   0.9456
B( 18-C , 24-H ) :   0.9373 B( 18-C , 25-H ) :   0.9193 B( 19-C , 20-O ) :   0.8428
B( 19-C , 26-H ) :   0.9346 B( 19-C , 27-H ) :   0.9370 B( 22-O , 28-H ) :   0.7959

FINAL SINGLE POINT ENERGY      -652.866249982711

DIPOLE MOMENT
-------------
                                X             Y             Z
Electronic contribution:     -2.76983      -4.77126       0.42146
Nuclear contribution   :      3.66159       5.69557      -0.48828
                        -----------------------------------------
Total Dipole Moment    :      0.89176       0.92431      -0.06682
                        -----------------------------------------
Magnitude (a.u.)       :      1.28609
Magnitude (Debye)      :      3.26899

Rotational constants in cm-1:     0.060565     0.013351     0.013094
Rotational constants in MHz :  1815.690640   400.266593   392.543129

                             ****ORCA TERMINATED NORMALLY****
TOTAL RUN TIME: 0 days 0 hours 18 minutes 14 seconds 609 msec
