                         Program Version 4.2.0 -  RELEASE  -
|  1> # Test redundant internal optimization
|  2> #
|  3> ! RKS B3LYP  Opt TightSCF SmallPrint
|  4>
|  5> %basis
|  6>         Basis "6-31G"
|  7> end
|  8>
|  9> %geom
| 10> Constraints
| 11> { D 4  0  15  12  150.0   C } # D for Dihedral angle
| 12> { D 0  15  12  16  195.0   C } # D for Dihedral angle
| 13> { D 0  4  3  2   C } # D for Dihedral angle
| 14> { D 4  3  2  1   C } # D for Dihedral angle
| 15> { D 3  2  1  0   C } # D for Dihedral angle
| 16> { D 2  1  0  4   C } # D for Dihedral angle
| 17> { D 1  0  4  3   C } # D for Dihedral angle
| 18> { D 16  20  19  18   C } # D for Dihedral angle
| 19> { D 20  19  18  17   C } # D for Dihedral angle
| 20> { D 19  18  17  16   C } # D for Dihedral angle
| 21> { D 18  17  16  20   C } # D for Dihedral angle
| 22> { D 17  16  20  19   C } # D for Dihedral angle
| 23> { D 15  12  16  20   C } # D for Dihedral angle
| 24> end
| 25> end
| 26>
| 27>
| 28> #%pal
| 29> #nprocs 8
| 30> #end
| 31>
| 32> * xyz 0 1
| 33> C  -21.048   26.222   46.251
| 34> C  -20.361   27.558   45.944
| 35> C  -20.329   28.222   47.341
| 36> C  -20.110   27.022   48.296
| 37> O  -20.473   25.807   47.535
| 38> H  -20.833   25.428   45.533
| 39> H  -19.344   27.382   45.576
| 40> H  -20.898   28.157   45.201
| 41> H  -19.543   28.978   47.434
| 42> H  -21.289   28.710   47.548
| 43> H  -20.733   27.082   49.195
| 44> H  -19.064   26.913   48.597
| 45> C  -23.210   27.459   45.431
| 46> H  -22.588   28.363   45.445
| 47> H  -23.247   27.083   44.401
| 48> O  -22.586   26.394   46.375
| 49> C  -24.655   27.854   45.844
| 50> C  -25.280   28.816   44.828
| 51> C  -25.702   27.848   43.697
| 52> C  -26.126   26.572   44.467
| 53> O  -25.534   26.680   45.818
| 54> H  -24.645   28.224   46.871
| 55> O  -26.523   29.512   45.447
| 56> H  -24.585   29.591   44.486
| 57> H  -26.510   28.248   43.075
| 58> H  -24.848   27.638   43.043
| 59> H  -25.765   25.655   43.989
| 60> H  -27.210   26.502   44.594
| 61> H  -27.233   28.753   45.796
| 62> *
| 63>
| 64>                          ****END OF INPUT****
 Total Charge           Charge          ....    0
 Multiplicity           Mult            ....    1
 Number of Electrons    NEL             ....  102
FINAL SINGLE POINT ENERGY      -652.821489848907
FINAL SINGLE POINT ENERGY      -652.845449697214
FINAL SINGLE POINT ENERGY      -652.849619569108
FINAL SINGLE POINT ENERGY      -652.851694440663
FINAL SINGLE POINT ENERGY      -652.851891174150
FINAL SINGLE POINT ENERGY      -652.851930418715
                    ***********************HURRAY********************

CARTESIAN COORDINATES (ANGSTROEM)
---------------------------------
  C    -21.098538   26.292015   46.202310
  C    -20.228101   27.524943   45.957592
  C    -20.310646   28.256341   47.323151
  C    -20.366359   27.085754   48.328136
  O    -20.762695   25.893984   47.539835
  H    -20.881237   25.439498   45.553108
  H    -19.204072   27.183694   45.767870
  H    -20.530436   28.144384   45.110014
  H    -19.454561   28.915433   47.495685
  H    -21.222357   28.861078   47.378465
  H    -21.097630   27.237840   49.125965
  H    -19.390654   26.860215   48.768632
  C    -23.117039   27.503826   45.278594
  H    -22.565939   28.454895   45.297137
  H    -23.111717   27.125468   44.244901
  O    -22.540803   26.530096   46.179853
  C    -24.542639   27.780479   45.755537
  C    -25.310119   28.773098   44.871440
  C    -25.828861   27.851288   43.735582
  C    -26.121619   26.521524   44.474932
  O    -25.381087   26.581172   45.757442
  H    -24.495522   28.121346   46.793858
  O    -26.401975   29.385906   45.609748
  H    -24.706777   29.607014   44.508726
  H    -26.714041   28.283292   43.262454
  H    -25.057111   27.720217   42.968799
  H    -25.790603   25.642963   43.912906
  H    -27.181848   26.399689   44.718026
  H    -26.857013   28.695546   46.137303

 Multiplicity           Mult            ....    1
 Number of Electrons    NEL             ....  102
 Basis Dimension        Dim             ....  149

ORBITAL ENERGIES
----------------

  NO   OCC          E(Eh)            E(eV)
   0   2.0000     -19.139986      -520.8255
   1   2.0000     -19.139128      -520.8021
   2   2.0000     -19.138406      -520.7825
   3   2.0000     -19.136979      -520.7437
   4   2.0000     -10.279810      -279.7278
   5   2.0000     -10.244601      -278.7698
   6   2.0000     -10.236152      -278.5399
   7   2.0000     -10.234845      -278.5043
   8   2.0000     -10.229483      -278.3584
   9   2.0000     -10.225918      -278.2614
  10   2.0000     -10.193500      -277.3792
  11   2.0000     -10.192769      -277.3593
  12   2.0000     -10.190936      -277.3095
  13   2.0000      -1.051753       -28.6197
  14   2.0000      -1.036505       -28.2047
  15   2.0000      -1.006864       -27.3982
  16   2.0000      -0.991077       -26.9686
  17   2.0000      -0.790556       -21.5121
  18   2.0000      -0.786143       -21.3920
  19   2.0000      -0.769791       -20.9471
  20   2.0000      -0.733447       -19.9581
  21   2.0000      -0.678813       -18.4714
  22   2.0000      -0.606227       -16.4963
  23   2.0000      -0.604898       -16.4601
  24   2.0000      -0.593945       -16.1621
  25   2.0000      -0.578711       -15.7475
  26   2.0000      -0.525297       -14.2941
  27   2.0000      -0.514872       -14.0104
  28   2.0000      -0.499140       -13.5823
  29   2.0000      -0.494484       -13.4556
  30   2.0000      -0.474970       -12.9246
  31   2.0000      -0.462225       -12.5778
  32   2.0000      -0.451419       -12.2837
  33   2.0000      -0.445002       -12.1091
  34   2.0000      -0.426333       -11.6011
  35   2.0000      -0.415091       -11.2952
  36   2.0000      -0.398987       -10.8570
  37   2.0000      -0.394232       -10.7276
  38   2.0000      -0.379634       -10.3304
  39   2.0000      -0.372908       -10.1473
  40   2.0000      -0.364862        -9.9284
  41   2.0000      -0.361240        -9.8298
  42   2.0000      -0.354824        -9.6553
  43   2.0000      -0.333463        -9.0740
  44   2.0000      -0.312948        -8.5158
  45   2.0000      -0.306533        -8.3412
  46   2.0000      -0.294301        -8.0083
  47   2.0000      -0.272822        -7.4239
  48   2.0000      -0.263381        -7.1669
  49   2.0000      -0.249154        -6.7798
  50   2.0000      -0.242286        -6.5929
  51   0.0000       0.062683         1.7057
  52   0.0000       0.076843         2.0910
  53   0.0000       0.085089         2.3154
  54   0.0000       0.097606         2.6560
  55   0.0000       0.103087         2.8051

MULLIKEN ATOMIC CHARGES
-----------------------
   0 C :    0.319512
   1 C :   -0.300620
   2 C :   -0.301075
   3 C :   -0.000005
   4 O :   -0.494174
   5 H :    0.148622
   6 H :    0.154202
   7 H :    0.141874
   8 H :    0.145607
   9 H :    0.151756
  10 H :    0.155059
  11 H :    0.143702
  12 C :    0.001135
  13 H :    0.122153
  14 H :    0.123028
  15 O :   -0.509463
  16 C :    0.071617
  17 C :    0.077398
  18 C :   -0.296179
  19 C :   -0.029698
  20 O :   -0.503589
  21 H :    0.167063
  22 O :   -0.602600
  23 H :    0.147157
  24 H :    0.161878
  25 H :    0.143465
  26 H :    0.149009
  27 H :    0.146622
  28 H :    0.366543
Sum of atomic charges:   -0.0000000

LOEWDIN ATOMIC CHARGES
----------------------
   0 C :    0.185125
   1 C :   -0.235306
   2 C :   -0.217740
   3 C :   -0.026488
   4 O :   -0.302682
   5 H :    0.100911
   6 H :    0.120677
   7 H :    0.112532
   8 H :    0.115949
   9 H :    0.111345
  10 H :    0.109692
  11 H :    0.103453
  12 C :   -0.042859
  13 H :    0.091198
  14 H :    0.089525
  15 O :   -0.323850
  16 C :    0.019307
  17 C :    0.034558
  18 C :   -0.241856
  19 C :   -0.038258
  20 O :   -0.315340
  21 H :    0.120317
  22 O :   -0.414277
  23 H :    0.112923
  24 H :    0.126278
  25 H :    0.111992
  26 H :    0.105768
  27 H :    0.102673
  28 H :    0.284432

  Mayer bond orders larger than 0.100000
B(  0-C ,  1-C ) :   0.9290 B(  0-C ,  4-O ) :   0.9336 B(  0-C ,  5-H ) :   0.9249
B(  0-C , 15-O ) :   0.8426 B(  1-C ,  2-C ) :   0.9496 B(  1-C ,  6-H ) :   0.9336
B(  1-C ,  7-H ) :   0.9280 B(  2-C ,  3-C ) :   0.9528 B(  2-C ,  8-H ) :   0.9453
B(  2-C ,  9-H ) :   0.9447 B(  3-C ,  4-O ) :   0.8392 B(  3-C , 10-H ) :   0.9339
B(  3-C , 11-H ) :   0.9394 B( 12-C , 13-H ) :   0.8978 B( 12-C , 14-H ) :   0.9158
B( 12-C , 15-O ) :   0.8503 B( 12-C , 16-C ) :   0.8978 B( 16-C , 17-C ) :   0.8988
B( 16-C , 20-O ) :   0.8718 B( 16-C , 21-H ) :   0.9234 B( 17-C , 18-C ) :   0.9119
B( 17-C , 22-O ) :   0.8938 B( 17-C , 23-H ) :   0.9334 B( 18-C , 19-C ) :   0.9390
B( 18-C , 24-H ) :   0.9374 B( 18-C , 25-H ) :   0.9341 B( 19-C , 20-O ) :   0.8523
B( 19-C , 26-H ) :   0.9342 B( 19-C , 27-H ) :   0.9374 B( 22-O , 28-H ) :   0.7930

FINAL SINGLE POINT ENERGY      -652.851933605464

DIPOLE MOMENT
-------------
                                X             Y             Z
Electronic contribution:     -2.90814      -3.39983       2.57738
Nuclear contribution   :      3.61068       4.26002      -3.63268
                        -----------------------------------------
Total Dipole Moment    :      0.70254       0.86019      -1.05530
                        -----------------------------------------
Magnitude (a.u.)       :      1.53204
Magnitude (Debye)      :      3.89413

Rotational constants in cm-1:     0.059441     0.012035     0.011455
Rotational constants in MHz :  1782.008470   360.801039   343.403982

                             ****ORCA TERMINATED NORMALLY****
TOTAL RUN TIME: 0 days 0 hours 19 minutes 51 seconds 550 msec
