                         Program Version 4.2.0 -  RELEASE  -
|  1> # Test redundant internal optimization
|  2> #
|  3> ! RKS B3LYP  Opt TightSCF SmallPrint
|  4>
|  5> %basis
|  6>         Basis "6-31G"
|  7> end
|  8>
|  9> %geom
| 10> Constraints
| 11> { D 4  0  15  12  255.0   C } # D for Dihedral angle
| 12> { D 0  15  12  16  285.0   C } # D for Dihedral angle
| 13> { D 0  4  3  2   C } # D for Dihedral angle
| 14> { D 4  3  2  1   C } # D for Dihedral angle
| 15> { D 3  2  1  0   C } # D for Dihedral angle
| 16> { D 2  1  0  4   C } # D for Dihedral angle
| 17> { D 1  0  4  3   C } # D for Dihedral angle
| 18> { D 16  20  19  18   C } # D for Dihedral angle
| 19> { D 20  19  18  17   C } # D for Dihedral angle
| 20> { D 19  18  17  16   C } # D for Dihedral angle
| 21> { D 18  17  16  20   C } # D for Dihedral angle
| 22> { D 17  16  20  19   C } # D for Dihedral angle
| 23> { D 15  12  16  20   C } # D for Dihedral angle
| 24> end
| 25> end
| 26>
| 27>
| 28> #%pal
| 29> #nprocs 8
| 30> #end
| 31>
| 32> * xyz 0 1
| 33> C  -21.048   26.222   46.251
| 34> C  -20.361   27.558   45.944
| 35> C  -20.329   28.222   47.341
| 36> C  -20.110   27.022   48.296
| 37> O  -20.473   25.807   47.535
| 38> H  -20.833   25.428   45.533
| 39> H  -19.344   27.382   45.576
| 40> H  -20.898   28.157   45.201
| 41> H  -19.543   28.978   47.434
| 42> H  -21.289   28.710   47.548
| 43> H  -20.733   27.082   49.195
| 44> H  -19.064   26.913   48.597
| 45> C  -23.431   25.260   45.734
| 46> H  -23.009   24.288   46.019
| 47> H  -24.467   25.302   46.093
| 48> O  -22.586   26.394   46.375
| 49> C  -23.466   25.340   44.182
| 50> C  -23.963   26.711   43.707
| 51> C  -22.694   27.580   43.877
| 52> C  -21.547   26.601   43.527
| 53> O  -22.111   25.237   43.633
| 54> H  -24.035   24.494   43.793
| 55> H  -24.257   26.659   42.653
| 56> O  -25.170   27.241   44.528
| 57> H  -22.697   28.467   43.235
| 58> H  -22.608   27.921   44.916
| 59> H  -20.694   26.691   44.209
| 60> H  -21.192   26.723   42.499
| 61> H  -24.898   27.301   45.587
| 62> *
| 63>
| 64>                          ****END OF INPUT****
 Total Charge           Charge          ....    0
 Multiplicity           Mult            ....    1
 Number of Electrons    NEL             ....  102
FINAL SINGLE POINT ENERGY      -652.805273772615
FINAL SINGLE POINT ENERGY      -652.839022295576
FINAL SINGLE POINT ENERGY      -652.856995498168
FINAL SINGLE POINT ENERGY      -652.860517617353
FINAL SINGLE POINT ENERGY      -652.860975952271
FINAL SINGLE POINT ENERGY      -652.861043162452
FINAL SINGLE POINT ENERGY      -652.861052497903
FINAL SINGLE POINT ENERGY      -652.861053175217
                    ***********************HURRAY********************

CARTESIAN COORDINATES (ANGSTROEM)
---------------------------------
  C    -20.949428   26.218507   46.358467
  C    -20.307772   27.595979   46.181172
  C    -20.352907   28.161868   47.624661
  C    -20.120884   26.900740   48.487547
  O    -20.412380   25.745744   47.609324
  H    -20.720664   25.470370   45.599082
  H    -19.269757   27.467141   45.851128
  H    -20.829404   28.226096   45.460989
  H    -19.597251   28.933317   47.798865
  H    -21.340868   28.588945   47.821599
  H    -20.776503   26.853898   49.360783
  H    -19.080917   26.795821   48.811635
  C    -23.234215   25.386560   45.834498
  H    -22.874642   24.391251   46.128741
  H    -24.229323   25.523326   46.269326
  O    -22.395685   26.393592   46.476578
  C    -23.379367   25.407996   44.310584
  C    -24.049277   26.650035   43.694433
  C    -22.826979   27.585992   43.456870
  C    -21.703453   26.596902   43.081014
  O    -22.147753   25.252075   43.543111
  H    -23.976804   24.515215   44.082680
  H    -24.530247   26.383280   42.751354
  O    -25.101515   27.230007   44.498734
  H    -23.015648   28.329631   42.677779
  H    -22.605637   28.107563   44.393944
  H    -20.742379   26.834273   43.543756
  H    -21.561322   26.521607   41.998850
  H    -24.717020   27.623268   45.310498

 Multiplicity           Mult            ....    1
 Number of Electrons    NEL             ....  102
 Basis Dimension        Dim             ....  149

ORBITAL ENERGIES
----------------

  NO   OCC          E(Eh)            E(eV)
   0   2.0000     -19.148230      -521.0498
   1   2.0000     -19.146270      -520.9965
   2   2.0000     -19.146175      -520.9939
   3   2.0000     -19.137468      -520.7570
   4   2.0000     -10.277128      -279.6549
   5   2.0000     -10.243976      -278.7528
   6   2.0000     -10.235570      -278.5240
   7   2.0000     -10.234805      -278.5032
   8   2.0000     -10.231478      -278.4127
   9   2.0000     -10.224100      -278.2119
  10   2.0000     -10.192377      -277.3487
  11   2.0000     -10.188662      -277.2476
  12   2.0000     -10.187281      -277.2100
  13   2.0000      -1.052507       -28.6402
  14   2.0000      -1.034732       -28.1565
  15   2.0000      -1.017989       -27.7009
  16   2.0000      -0.993231       -27.0272
  17   2.0000      -0.789378       -21.4801
  18   2.0000      -0.781258       -21.2591
  19   2.0000      -0.770629       -20.9699
  20   2.0000      -0.732682       -19.9373
  21   2.0000      -0.683392       -18.5961
  22   2.0000      -0.612341       -16.6626
  23   2.0000      -0.601167       -16.3586
  24   2.0000      -0.599280       -16.3072
  25   2.0000      -0.572080       -15.5671
  26   2.0000      -0.529319       -14.4035
  27   2.0000      -0.509977       -13.8772
  28   2.0000      -0.507643       -13.8137
  29   2.0000      -0.485505       -13.2113
  30   2.0000      -0.465756       -12.6739
  31   2.0000      -0.459816       -12.5122
  32   2.0000      -0.450198       -12.2505
  33   2.0000      -0.438939       -11.9441
  34   2.0000      -0.428082       -11.6487
  35   2.0000      -0.414069       -11.2674
  36   2.0000      -0.411336       -11.1930
  37   2.0000      -0.398287       -10.8379
  38   2.0000      -0.385782       -10.4977
  39   2.0000      -0.368525       -10.0281
  40   2.0000      -0.363250        -9.8845
  41   2.0000      -0.354621        -9.6497
  42   2.0000      -0.348171        -9.4742
  43   2.0000      -0.335855        -9.1391
  44   2.0000      -0.321074        -8.7369
  45   2.0000      -0.315051        -8.5730
  46   2.0000      -0.309503        -8.4220
  47   2.0000      -0.275733        -7.5031
  48   2.0000      -0.268460        -7.3052
  49   2.0000      -0.252487        -6.8705
  50   2.0000      -0.241886        -6.5821
  51   0.0000       0.063421         1.7258
  52   0.0000       0.072176         1.9640
  53   0.0000       0.082083         2.2336
  54   0.0000       0.094505         2.5716
  55   0.0000       0.102199         2.7810

MULLIKEN ATOMIC CHARGES
-----------------------
   0 C :    0.272623
   1 C :   -0.267435
   2 C :   -0.302673
   3 C :    0.001938
   4 O :   -0.506071
   5 H :    0.178343
   6 H :    0.147446
   7 H :    0.144071
   8 H :    0.141688
   9 H :    0.158620
  10 H :    0.149972
  11 H :    0.140844
  12 C :   -0.047724
  13 H :    0.156276
  14 H :    0.157194
  15 O :   -0.531185
  16 C :    0.096321
  17 C :    0.087086
  18 C :   -0.321661
  19 C :   -0.021074
  20 O :   -0.522996
  21 H :    0.152094
  22 H :    0.166348
  23 O :   -0.602900
  24 H :    0.154798
  25 H :    0.154844
  26 H :    0.142368
  27 H :    0.152720
  28 H :    0.368122
Sum of atomic charges:   -0.0000000

LOEWDIN ATOMIC CHARGES
----------------------
   0 C :    0.169253
   1 C :   -0.222636
   2 C :   -0.216492
   3 C :   -0.026155
   4 O :   -0.317026
   5 H :    0.116327
   6 H :    0.114498
   7 H :    0.113775
   8 H :    0.113768
   9 H :    0.117180
  10 H :    0.106874
  11 H :    0.101801
  12 C :   -0.051714
  13 H :    0.109968
  14 H :    0.119396
  15 O :   -0.344542
  16 C :    0.005120
  17 C :    0.036570
  18 C :   -0.242656
  19 C :   -0.031903
  20 O :   -0.325129
  21 H :    0.117057
  22 H :    0.118081
  23 O :   -0.407692
  24 H :    0.121188
  25 H :    0.112801
  26 H :    0.100205
  27 H :    0.107329
  28 H :    0.284753

  Mayer bond orders larger than 0.100000
B(  0-C ,  1-C ) :   0.9416 B(  0-C ,  4-O ) :   0.9142 B(  0-C ,  5-H ) :   0.9044
B(  0-C , 15-O ) :   0.8274 B(  1-C ,  2-C ) :   0.9524 B(  1-C ,  6-H ) :   0.9373
B(  1-C ,  7-H ) :   0.9280 B(  2-C ,  3-C ) :   0.9544 B(  2-C ,  8-H ) :   0.9452
B(  2-C ,  9-H ) :   0.9444 B(  3-C ,  4-O ) :   0.8393 B(  3-C , 10-H ) :   0.9351
B(  3-C , 11-H ) :   0.9399 B( 12-C , 13-H ) :   0.9241 B( 12-C , 14-H ) :   0.9218
B( 12-C , 15-O ) :   0.8640 B( 12-C , 16-C ) :   0.8941 B( 16-C , 17-C ) :   0.8816
B( 16-C , 20-O ) :   0.8609 B( 16-C , 21-H ) :   0.9206 B( 17-C , 18-C ) :   0.9249
B( 17-C , 22-H ) :   0.9353 B( 17-C , 23-O ) :   0.9090 B( 18-C , 19-C ) :   0.9455
B( 18-C , 24-H ) :   0.9404 B( 18-C , 25-H ) :   0.9234 B( 19-C , 20-O ) :   0.8361
B( 19-C , 26-H ) :   0.9220 B( 19-C , 27-H ) :   0.9379 B( 23-O , 28-H ) :   0.7895

FINAL SINGLE POINT ENERGY      -652.861052471194

DIPOLE MOMENT
-------------
                                X             Y             Z
Electronic contribution:     -2.87902      -4.44684      -0.33500
Nuclear contribution   :      3.39825       5.44709       0.17177
                        -----------------------------------------
Total Dipole Moment    :      0.51923       1.00026      -0.16322
                        -----------------------------------------
Magnitude (a.u.)       :      1.13875
Magnitude (Debye)      :      2.89447

Rotational constants in cm-1:     0.047791     0.016181     0.015759
Rotational constants in MHz :  1432.731882   485.091260   472.454072

                             ****ORCA TERMINATED NORMALLY****
TOTAL RUN TIME: 0 days 0 hours 22 minutes 28 seconds 256 msec
