                         Program Version 4.2.0 -  RELEASE  -
|  1> # Test redundant internal optimization
|  2> #
|  3> ! RKS B3LYP  Opt TightSCF SmallPrint
|  4>
|  5> %basis
|  6>         Basis "6-31G"
|  7> end
|  8>
|  9> %geom
| 10> Constraints
| 11> { D 4  0  15  12  285.0   C } # D for Dihedral angle
| 12> { D 0  15  12  16  0.0   C } # D for Dihedral angle
| 13> { D 0  4  3  2   C } # D for Dihedral angle
| 14> { D 4  3  2  1   C } # D for Dihedral angle
| 15> { D 3  2  1  0   C } # D for Dihedral angle
| 16> { D 2  1  0  4   C } # D for Dihedral angle
| 17> { D 1  0  4  3   C } # D for Dihedral angle
| 18> { D 16  20  19  18   C } # D for Dihedral angle
| 19> { D 20  19  18  17   C } # D for Dihedral angle
| 20> { D 19  18  17  16   C } # D for Dihedral angle
| 21> { D 18  17  16  20   C } # D for Dihedral angle
| 22> { D 17  16  20  19   C } # D for Dihedral angle
| 23> { D 15  12  16  20   C } # D for Dihedral angle
| 24> end
| 25> end
| 26>
| 27>
| 28> #%pal
| 29> #nprocs 8
| 30> #end
| 31>
| 32> * xyz 0 1
| 33> C  -21.048   26.222   46.251
| 34> C  -20.361   27.558   45.944
| 35> C  -20.329   28.222   47.341
| 36> C  -20.110   27.022   48.296
| 37> O  -20.473   25.807   47.535
| 38> H  -20.833   25.428   45.533
| 39> H  -19.344   27.382   45.576
| 40> H  -20.898   28.157   45.201
| 41> H  -19.543   28.978   47.434
| 42> H  -21.289   28.710   47.548
| 43> H  -20.733   27.082   49.195
| 44> H  -19.064   26.913   48.597
| 45> C  -23.396   25.070   46.435
| 46> H  -23.960   25.033   47.376
| 47> H  -24.111   25.019   45.604
| 48> O  -22.586   26.394   46.375
| 49> C  -22.492   23.809   46.358
| 50> C  -23.329   22.526   46.304
| 51> C  -23.761   22.496   44.818
| 52> C  -22.531   23.085   44.083
| 53> O  -21.733   23.798   45.103
| 54> H  -21.764   23.840   47.172
| 55> O  -22.443   21.296   46.642
| 56> H  -24.180   22.538   46.993
| 57> H  -24.013   21.490   44.469
| 58> H  -24.641   23.133   44.669
| 59> H  -22.813   23.789   43.292
| 60> H  -21.889   22.310   43.655
| 61> H  -21.583   21.264   45.963
| 62> *
| 63>
| 64>                          ****END OF INPUT****
 Total Charge           Charge          ....    0
 Multiplicity           Mult            ....    1
 Number of Electrons    NEL             ....  102
FINAL SINGLE POINT ENERGY      -652.833726607580
FINAL SINGLE POINT ENERGY      -652.857027066344
FINAL SINGLE POINT ENERGY      -652.860450204032
FINAL SINGLE POINT ENERGY      -652.863329804204
FINAL SINGLE POINT ENERGY      -652.863591586399
FINAL SINGLE POINT ENERGY      -652.863646253773
                    ***********************HURRAY********************

CARTESIAN COORDINATES (ANGSTROEM)
---------------------------------
  C    -20.921622   26.232779   46.200749
  C    -20.430243   27.666337   45.988063
  C    -20.469992   28.231530   47.427639
  C    -20.075296   27.011385   48.292209
  O    -20.283538   25.817931   47.437021
  H    -20.642465   25.499657   45.446562
  H    -19.404809   27.640003   45.601897
  H    -21.061943   28.217766   45.289078
  H    -19.789684   29.076917   47.569374
  H    -21.486329   28.558797   47.663843
  H    -20.684816   26.913890   49.194890
  H    -19.017499   27.016151   48.573052
  C    -23.170390   25.100265   46.387892
  H    -23.709957   25.113018   47.344041
  H    -23.907624   25.198104   45.580901
  O    -22.358869   26.313586   46.342928
  C    -22.437142   23.760906   46.278942
  C    -23.379102   22.546104   46.284630
  C    -23.826684   22.488488   44.798838
  C    -22.557870   22.943657   44.032209
  O    -21.691372   23.634121   45.018851
  H    -21.692561   23.691238   47.077166
  O    -22.672792   21.340839   46.682520
  H    -24.212287   22.636332   46.982658
  H    -24.147490   21.479522   44.529715
  H    -24.663103   23.174906   44.627433
  H    -22.783628   23.632598   43.212866
  H    -21.983825   22.101868   43.633445
  H    -21.787068   21.332306   46.262589

 Multiplicity           Mult            ....    1
 Number of Electrons    NEL             ....  102
 Basis Dimension        Dim             ....  149

ORBITAL ENERGIES
----------------

  NO   OCC          E(Eh)            E(eV)
   0   2.0000     -19.149560      -521.0860
   1   2.0000     -19.140846      -520.8489
   2   2.0000     -19.134634      -520.6799
   3   2.0000     -19.130159      -520.5581
   4   2.0000     -10.262834      -279.2659
   5   2.0000     -10.246548      -278.8227
   6   2.0000     -10.235809      -278.5305
   7   2.0000     -10.235577      -278.5242
   8   2.0000     -10.231101      -278.4024
   9   2.0000     -10.217225      -278.0248
  10   2.0000     -10.193274      -277.3731
  11   2.0000     -10.176849      -276.9262
  12   2.0000     -10.175780      -276.8971
  13   2.0000      -1.046213       -28.4689
  14   2.0000      -1.036660       -28.2090
  15   2.0000      -1.009746       -27.4766
  16   2.0000      -0.982834       -26.7443
  17   2.0000      -0.789562       -21.4851
  18   2.0000      -0.778694       -21.1893
  19   2.0000      -0.764324       -20.7983
  20   2.0000      -0.727512       -19.7966
  21   2.0000      -0.672188       -18.2912
  22   2.0000      -0.608371       -16.5546
  23   2.0000      -0.602719       -16.4008
  24   2.0000      -0.589371       -16.0376
  25   2.0000      -0.566043       -15.4028
  26   2.0000      -0.528167       -14.3722
  27   2.0000      -0.507621       -13.8131
  28   2.0000      -0.493900       -13.4397
  29   2.0000      -0.478116       -13.0102
  30   2.0000      -0.475924       -12.9505
  31   2.0000      -0.455583       -12.3970
  32   2.0000      -0.446901       -12.1608
  33   2.0000      -0.438393       -11.9293
  34   2.0000      -0.417487       -11.3604
  35   2.0000      -0.407550       -11.0900
  36   2.0000      -0.397083       -10.8052
  37   2.0000      -0.394488       -10.7346
  38   2.0000      -0.379325       -10.3220
  39   2.0000      -0.366965        -9.9856
  40   2.0000      -0.362483        -9.8637
  41   2.0000      -0.348026        -9.4703
  42   2.0000      -0.339713        -9.2441
  43   2.0000      -0.332348        -9.0437
  44   2.0000      -0.323572        -8.8048
  45   2.0000      -0.312769        -8.5109
  46   2.0000      -0.290788        -7.9127
  47   2.0000      -0.276634        -7.5276
  48   2.0000      -0.261600        -7.1185
  49   2.0000      -0.247699        -6.7402
  50   2.0000      -0.237850        -6.4722
  51   0.0000       0.063971         1.7407
  52   0.0000       0.085231         2.3193
  53   0.0000       0.090451         2.4613
  54   0.0000       0.100342         2.7305
  55   0.0000       0.104599         2.8463

MULLIKEN ATOMIC CHARGES
-----------------------
   0 C :    0.267430
   1 C :   -0.257293
   2 C :   -0.295757
   3 C :   -0.001866
   4 O :   -0.520292
   5 H :    0.195357
   6 H :    0.142567
   7 H :    0.152569
   8 H :    0.135448
   9 H :    0.159715
  10 H :    0.141356
  11 H :    0.139466
  12 C :    0.029286
  13 H :    0.140168
  14 H :    0.137588
  15 O :   -0.544393
  16 C :    0.016077
  17 C :    0.080480
  18 C :   -0.295393
  19 C :   -0.027993
  20 O :   -0.526491
  21 H :    0.200513
  22 O :   -0.601324
  23 H :    0.156167
  24 H :    0.162846
  25 H :    0.145062
  26 H :    0.150053
  27 H :    0.150708
  28 H :    0.367946
Sum of atomic charges:   -0.0000000

LOEWDIN ATOMIC CHARGES
----------------------
   0 C :    0.163049
   1 C :   -0.212921
   2 C :   -0.215979
   3 C :   -0.029311
   4 O :   -0.335389
   5 H :    0.120660
   6 H :    0.112439
   7 H :    0.122150
   8 H :    0.110486
   9 H :    0.117907
  10 H :    0.102073
  11 H :    0.100766
  12 C :   -0.036131
  13 H :    0.106820
  14 H :    0.101030
  15 O :   -0.330480
  16 C :   -0.003340
  17 C :    0.040072
  18 C :   -0.239626
  19 C :   -0.038019
  20 O :   -0.331183
  21 H :    0.133242
  22 O :   -0.412487
  23 H :    0.117722
  24 H :    0.127153
  25 H :    0.113300
  26 H :    0.106020
  27 H :    0.104694
  28 H :    0.285282

  Mayer bond orders larger than 0.100000
B(  0-C ,  1-C ) :   0.9448 B(  0-C ,  4-O ) :   0.8832 B(  0-C ,  5-H ) :   0.8919
B(  0-C , 15-O ) :   0.8448 B(  1-C ,  2-C ) :   0.9555 B(  1-C ,  6-H ) :   0.9419
B(  1-C ,  7-H ) :   0.9378 B(  2-C ,  3-C ) :   0.9558 B(  2-C ,  8-H ) :   0.9460
B(  2-C ,  9-H ) :   0.9444 B(  3-C ,  4-O ) :   0.8410 B(  3-C , 10-H ) :   0.9364
B(  3-C , 11-H ) :   0.9407 B( 12-C , 13-H ) :   0.9184 B( 12-C , 14-H ) :   0.9289
B( 12-C , 15-O ) :   0.8446 B( 12-C , 16-C ) :   0.9067 B( 16-C , 17-C ) :   0.8937
B( 16-C , 20-O ) :   0.8270 B( 16-C , 21-H ) :   0.9042 B( 17-C , 18-C ) :   0.9089
B( 17-C , 22-O ) :   0.8966 B( 17-C , 23-H ) :   0.9331 B( 18-C , 19-C ) :   0.9426
B( 18-C , 24-H ) :   0.9377 B( 18-C , 25-H ) :   0.9338 B( 19-C , 20-O ) :   0.8404
B( 19-C , 26-H ) :   0.9348 B( 19-C , 27-H ) :   0.9377 B( 22-O , 28-H ) :   0.7928

FINAL SINGLE POINT ENERGY      -652.863649380449

DIPOLE MOMENT
-------------
                                X             Y             Z
Electronic contribution:      0.70091      -3.45829       0.67366
Nuclear contribution   :     -1.08261       3.82005      -1.28148
                        -----------------------------------------
Total Dipole Moment    :     -0.38171       0.36176      -0.60783
                        -----------------------------------------
Magnitude (a.u.)       :      0.80375
Magnitude (Debye)      :      2.04298

Rotational constants in cm-1:     0.061894     0.013439     0.012716
Rotational constants in MHz :  1855.544998   402.892066   381.217053

                             ****ORCA TERMINATED NORMALLY****
TOTAL RUN TIME: 0 days 1 hours 56 minutes 33 seconds 873 msec
