                         Program Version 4.2.0 -  RELEASE  -
|  1> # Test redundant internal optimization
|  2> #
|  3> ! RKS B3LYP  Opt TightSCF SmallPrint
|  4>
|  5> %basis
|  6>         Basis "6-31G"
|  7> end
|  8>
|  9> %geom
| 10> Constraints
| 11> { D 4  0  15  12  210.0   C } # D for Dihedral angle
| 12> { D 0  15  12  16  210.0   C } # D for Dihedral angle
| 13> { D 0  4  3  2   C } # D for Dihedral angle
| 14> { D 4  3  2  1   C } # D for Dihedral angle
| 15> { D 3  2  1  0   C } # D for Dihedral angle
| 16> { D 2  1  0  4   C } # D for Dihedral angle
| 17> { D 1  0  4  3   C } # D for Dihedral angle
| 18> { D 16  20  19  18   C } # D for Dihedral angle
| 19> { D 20  19  18  17   C } # D for Dihedral angle
| 20> { D 19  18  17  16   C } # D for Dihedral angle
| 21> { D 18  17  16  20   C } # D for Dihedral angle
| 22> { D 17  16  20  19   C } # D for Dihedral angle
| 23> { D 15  12  16  20   C } # D for Dihedral angle
| 24> end
| 25> end
| 26>
| 27>
| 28> #%pal
| 29> #nprocs 8
| 30> #end
| 31>
| 32> * xyz 0 1
| 33> C  -21.048   26.222   46.251
| 34> C  -20.361   27.558   45.944
| 35> C  -20.329   28.222   47.341
| 36> C  -20.110   27.022   48.296
| 37> O  -20.473   25.807   47.535
| 38> H  -20.833   25.428   45.533
| 39> H  -19.344   27.382   45.576
| 40> H  -20.898   28.157   45.201
| 41> H  -19.543   28.978   47.434
| 42> H  -21.289   28.710   47.548
| 43> H  -20.733   27.082   49.195
| 44> H  -19.064   26.913   48.597
| 45> C  -23.389   26.110   45.076
| 46> H  -22.765   26.347   44.205
| 47> H  -23.668   25.050   45.021
| 48> O  -22.586   26.394   46.375
| 49> C  -24.695   26.948   44.982
| 50> C  -25.518   26.559   43.749
| 51> C  -26.204   25.257   44.227
| 52> C  -26.464   25.529   45.730
| 53> O  -25.578   26.648   46.114
| 54> H  -24.445   28.009   45.043
| 55> O  -26.574   27.657   43.446
| 56> H  -24.905   26.412   42.852
| 57> H  -27.125   25.036   43.677
| 58> H  -25.525   24.406   44.100
| 59> H  -26.238   24.660   46.358
| 60> H  -27.492   25.849   45.925
| 61> H  -27.199   27.820   44.331
| 62> *
| 63>
| 64>                          ****END OF INPUT****
 Total Charge           Charge          ....    0
 Multiplicity           Mult            ....    1
 Number of Electrons    NEL             ....  102
FINAL SINGLE POINT ENERGY      -652.829762242228
FINAL SINGLE POINT ENERGY      -652.852938965208
FINAL SINGLE POINT ENERGY      -652.856469906216
FINAL SINGLE POINT ENERGY      -652.857103619008
FINAL SINGLE POINT ENERGY      -652.857190318013
FINAL SINGLE POINT ENERGY      -652.857199977152
                    ***********************HURRAY********************

CARTESIAN COORDINATES (ANGSTROEM)
---------------------------------
  C    -21.085530   26.199885   46.169153
  C    -20.455823   27.562780   45.890688
  C    -20.525647   28.237872   47.281006
  C    -20.294206   27.058865   48.249145
  O    -20.565403   25.830414   47.454701
  H    -20.820061   25.402442   45.467637
  H    -19.414737   27.427051   45.573203
  H    -20.984161   28.123872   45.114709
  H    -19.782742   29.031868   47.401119
  H    -21.521374   28.665270   47.430462
  H    -20.965722   27.070027   49.110624
  H    -19.258390   26.985046   48.593447
  C    -23.273369   26.013459   45.056375
  H    -22.684247   26.274736   44.162359
  H    -23.490755   24.936782   45.021674
  O    -22.534932   26.318292   46.268851
  C    -24.554901   26.843136   45.043486
  C    -25.452802   26.577921   43.826399
  C    -26.224749   25.307367   44.272878
  C    -26.405960   25.528039   45.795554
  O    -25.416471   26.558378   46.192295
  H    -24.285189   27.900787   45.117358
  O    -26.349447   27.698848   43.593187
  H    -24.908565   26.446117   42.889954
  H    -27.172105   25.223915   43.735656
  H    -25.630473   24.409904   44.067716
  H    -26.228781   24.620789   46.380567
  H    -27.397213   25.917623   46.048266
  H    -26.711246   28.000515   44.453530

 Multiplicity           Mult            ....    1
 Number of Electrons    NEL             ....  102
 Basis Dimension        Dim             ....  149

ORBITAL ENERGIES
----------------

  NO   OCC          E(Eh)            E(eV)
   0   2.0000     -19.141085      -520.8554
   1   2.0000     -19.141051      -520.8545
   2   2.0000     -19.137914      -520.7691
   3   2.0000     -19.137605      -520.7607
   4   2.0000     -10.278240      -279.6851
   5   2.0000     -10.245491      -278.7940
   6   2.0000     -10.236484      -278.5489
   7   2.0000     -10.236061      -278.5374
   8   2.0000     -10.230195      -278.3778
   9   2.0000     -10.221762      -278.1483
  10   2.0000     -10.191192      -277.3164
  11   2.0000     -10.185274      -277.1554
  12   2.0000     -10.183374      -277.1037
  13   2.0000      -1.051400       -28.6100
  14   2.0000      -1.037376       -28.2284
  15   2.0000      -1.007731       -27.4218
  16   2.0000      -0.992172       -26.9984
  17   2.0000      -0.788314       -21.4511
  18   2.0000      -0.782660       -21.2973
  19   2.0000      -0.768611       -20.9150
  20   2.0000      -0.730023       -19.8649
  21   2.0000      -0.675478       -18.3807
  22   2.0000      -0.606289       -16.4979
  23   2.0000      -0.597654       -16.2630
  24   2.0000      -0.591930       -16.1072
  25   2.0000      -0.585160       -15.9230
  26   2.0000      -0.524999       -14.2860
  27   2.0000      -0.513145       -13.9634
  28   2.0000      -0.496915       -13.5217
  29   2.0000      -0.488636       -13.2965
  30   2.0000      -0.474854       -12.9214
  31   2.0000      -0.459320       -12.4987
  32   2.0000      -0.453759       -12.3474
  33   2.0000      -0.438811       -11.9407
  34   2.0000      -0.430443       -11.7129
  35   2.0000      -0.406040       -11.0489
  36   2.0000      -0.401250       -10.9186
  37   2.0000      -0.395076       -10.7506
  38   2.0000      -0.374706       -10.1963
  39   2.0000      -0.373218       -10.1558
  40   2.0000      -0.360452        -9.8084
  41   2.0000      -0.355643        -9.6775
  42   2.0000      -0.351932        -9.5765
  43   2.0000      -0.332538        -9.0488
  44   2.0000      -0.311845        -8.4857
  45   2.0000      -0.309454        -8.4207
  46   2.0000      -0.303174        -8.2498
  47   2.0000      -0.273354        -7.4383
  48   2.0000      -0.259587        -7.0637
  49   2.0000      -0.254164        -6.9161
  50   2.0000      -0.238887        -6.5004
  51   0.0000       0.064402         1.7525
  52   0.0000       0.082809         2.2533
  53   0.0000       0.084617         2.3025
  54   0.0000       0.094580         2.5737
  55   0.0000       0.098875         2.6905

MULLIKEN ATOMIC CHARGES
-----------------------
   0 C :    0.287490
   1 C :   -0.261301
   2 C :   -0.299176
   3 C :   -0.001037
   4 O :   -0.501685
   5 H :    0.136593
   6 H :    0.142414
   7 H :    0.140768
   8 H :    0.140674
   9 H :    0.165454
  10 H :    0.157533
  11 H :    0.139936
  12 C :   -0.002929
  13 H :    0.120099
  14 H :    0.138274
  15 O :   -0.496637
  16 C :    0.068439
  17 C :    0.073538
  18 C :   -0.293176
  19 C :   -0.028807
  20 O :   -0.505772
  21 H :    0.162179
  22 O :   -0.600987
  23 H :    0.149208
  24 H :    0.163142
  25 H :    0.142077
  26 H :    0.153999
  27 H :    0.143413
  28 H :    0.366278
Sum of atomic charges:   -0.0000000

LOEWDIN ATOMIC CHARGES
----------------------
   0 C :    0.177372
   1 C :   -0.227659
   2 C :   -0.216730
   3 C :   -0.024677
   4 O :   -0.306015
   5 H :    0.096054
   6 H :    0.112188
   7 H :    0.113602
   8 H :    0.113881
   9 H :    0.120940
  10 H :    0.111194
  11 H :    0.101460
  12 C :   -0.042092
  13 H :    0.091931
  14 H :    0.098564
  15 O :   -0.325099
  16 C :    0.016992
  17 C :    0.034086
  18 C :   -0.240465
  19 C :   -0.037553
  20 O :   -0.318246
  21 H :    0.117884
  22 O :   -0.414238
  23 H :    0.113868
  24 H :    0.126902
  25 H :    0.112038
  26 H :    0.108076
  27 H :    0.101565
  28 H :    0.284177

  Mayer bond orders larger than 0.100000
B(  0-C ,  1-C ) :   0.9318 B(  0-C ,  4-O ) :   0.9393 B(  0-C ,  5-H ) :   0.9200
B(  0-C , 15-O ) :   0.8351 B(  1-C ,  2-C ) :   0.9544 B(  1-C ,  6-H ) :   0.9341
B(  1-C ,  7-H ) :   0.9378 B(  2-C ,  3-C ) :   0.9555 B(  2-C ,  8-H ) :   0.9449
B(  2-C ,  9-H ) :   0.9425 B(  3-C ,  4-O ) :   0.8349 B(  3-C , 10-H ) :   0.9340
B(  3-C , 11-H ) :   0.9398 B( 12-C , 13-H ) :   0.9095 B( 12-C , 14-H ) :   0.9174
B( 12-C , 15-O ) :   0.8474 B( 12-C , 16-C ) :   0.8988 B( 16-C , 17-C ) :   0.8982
B( 16-C , 20-O ) :   0.8715 B( 16-C , 21-H ) :   0.9242 B( 17-C , 18-C ) :   0.9106
B( 17-C , 22-O ) :   0.8957 B( 17-C , 23-H ) :   0.9336 B( 18-C , 19-C ) :   0.9390
B( 18-C , 24-H ) :   0.9375 B( 18-C , 25-H ) :   0.9346 B( 19-C , 20-O ) :   0.8500
B( 19-C , 26-H ) :   0.9334 B( 19-C , 27-H ) :   0.9382 B( 22-O , 28-H ) :   0.7928

FINAL SINGLE POINT ENERGY      -652.857201680314

DIPOLE MOMENT
-------------
                                X             Y             Z
Electronic contribution:     -1.80109      -0.74944       1.07030
Nuclear contribution   :      2.06159       0.77794      -1.71320
                        -----------------------------------------
Total Dipole Moment    :      0.26050       0.02850      -0.64290
                        -----------------------------------------
Magnitude (a.u.)       :      0.69426
Magnitude (Debye)      :      1.76466

Rotational constants in cm-1:     0.062919     0.011455     0.010974
Rotational constants in MHz :  1886.266653   343.408706   328.991909

                             ****ORCA TERMINATED NORMALLY****
TOTAL RUN TIME: 0 days 0 hours 23 minutes 40 seconds 535 msec
