                         Program Version 4.2.0 -  RELEASE  -
|  1> # Test redundant internal optimization
|  2> #
|  3> ! RKS B3LYP  Opt TightSCF SmallPrint
|  4>
|  5> %basis
|  6>         Basis "6-31G"
|  7> end
|  8>
|  9> %geom
| 10> Constraints
| 11> { D 4  0  15  12  150.0   C } # D for Dihedral angle
| 12> { D 0  15  12  16  105.0   C } # D for Dihedral angle
| 13> { D 0  4  3  2   C } # D for Dihedral angle
| 14> { D 4  3  2  1   C } # D for Dihedral angle
| 15> { D 3  2  1  0   C } # D for Dihedral angle
| 16> { D 2  1  0  4   C } # D for Dihedral angle
| 17> { D 1  0  4  3   C } # D for Dihedral angle
| 18> { D 16  20  19  18   C } # D for Dihedral angle
| 19> { D 20  19  18  17   C } # D for Dihedral angle
| 20> { D 19  18  17  16   C } # D for Dihedral angle
| 21> { D 18  17  16  20   C } # D for Dihedral angle
| 22> { D 17  16  20  19   C } # D for Dihedral angle
| 23> { D 15  12  16  20   C } # D for Dihedral angle
| 24> end
| 25> end
| 26>
| 27>
| 28> #%pal
| 29> #nprocs 8
| 30> #end
| 31>
| 32> * xyz 0 1
| 33> C  -21.048   26.222   46.251
| 34> C  -20.361   27.558   45.944
| 35> C  -20.329   28.222   47.341
| 36> C  -20.110   27.022   48.296
| 37> O  -20.473   25.807   47.535
| 38> H  -20.833   25.428   45.533
| 39> H  -19.344   27.382   45.576
| 40> H  -20.898   28.157   45.201
| 41> H  -19.543   28.978   47.434
| 42> H  -21.289   28.710   47.548
| 43> H  -20.733   27.082   49.195
| 44> H  -19.064   26.913   48.597
| 45> C  -23.210   27.459   45.431
| 46> H  -23.913   28.079   46.001
| 47> H  -22.429   28.113   45.022
| 48> O  -22.586   26.394   46.375
| 49> C  -23.973   26.827   44.235
| 50> C  -23.074   25.872   43.442
| 51> C  -23.104   24.604   44.329
| 52> C  -24.546   24.605   44.895
| 53> O  -25.068   25.977   44.716
| 54> H  -24.424   27.622   43.638
| 55> H  -23.516   25.667   42.461
| 56> O  -21.638   26.422   43.227
| 57> H  -22.874   23.690   43.772
| 58> H  -22.371   24.695   45.140
| 59> H  -24.580   24.343   45.958
| 60> H  -25.211   23.933   44.343
| 61> H  -21.176   26.635   44.198
| 62> *
| 63>
| 64>                          ****END OF INPUT****
 Total Charge           Charge          ....    0
 Multiplicity           Mult            ....    1
 Number of Electrons    NEL             ....  102
FINAL SINGLE POINT ENERGY      -652.804689301635
FINAL SINGLE POINT ENERGY      -652.834771107760
FINAL SINGLE POINT ENERGY      -652.846115468594
FINAL SINGLE POINT ENERGY      -652.848299281552
FINAL SINGLE POINT ENERGY      -652.848892046974
FINAL SINGLE POINT ENERGY      -652.849099509470
FINAL SINGLE POINT ENERGY      -652.849167593495
FINAL SINGLE POINT ENERGY      -652.849240742665
FINAL SINGLE POINT ENERGY      -652.849265562245
FINAL SINGLE POINT ENERGY      -652.849298692487
FINAL SINGLE POINT ENERGY      -652.849353916633
FINAL SINGLE POINT ENERGY      -652.849360108756
FINAL SINGLE POINT ENERGY      -652.849369578522
FINAL SINGLE POINT ENERGY      -652.849371351097
FINAL SINGLE POINT ENERGY      -652.849371944264
FINAL SINGLE POINT ENERGY      -652.849371880424
FINAL SINGLE POINT ENERGY      -652.849371844370
FINAL SINGLE POINT ENERGY      -652.849372034762
FINAL SINGLE POINT ENERGY      -652.849372198466
                    ***********************HURRAY********************

CARTESIAN COORDINATES (ANGSTROEM)
---------------------------------
  C    -21.025330   26.309651   46.374633
  C    -20.201867   27.550204   46.031075
  C    -20.228721   28.335248   47.366630
  C    -20.199513   27.209365   48.422675
  O    -20.607805   25.975030   47.707245
  H    -20.810370   25.432294   45.757527
  H    -19.180883   27.223895   45.800050
  H    -20.566889   28.118678   45.173806
  H    -19.380800   29.020010   47.463517
  H    -21.150414   28.920958   47.444052
  H    -20.891398   27.378231   49.251509
  H    -19.196748   27.024664   48.818875
  C    -23.171378   27.432802   45.538646
  H    -23.888113   27.951179   46.183656
  H    -22.494701   28.172827   45.100605
  O    -22.472029   26.512073   46.430397
  C    -23.970938   26.785793   44.407349
  C    -23.188860   25.935519   43.394977
  C    -23.155445   24.545796   44.098102
  C    -24.528866   24.498155   44.809718
  O    -25.020566   25.890855   44.876899
  H    -24.490105   27.612631   43.904758
  H    -23.748174   25.880291   42.456563
  O    -21.882769   26.492025   43.066117
  H    -23.023031   23.722077   43.390011
  H    -22.346332   24.517466   44.831412
  H    -24.454814   24.097884   45.824273
  H    -25.268436   23.921462   44.245179
  H    -21.172703   25.950936   43.463746

 Multiplicity           Mult            ....    1
 Number of Electrons    NEL             ....  102
 Basis Dimension        Dim             ....  149

ORBITAL ENERGIES
----------------

  NO   OCC          E(Eh)            E(eV)
   0   2.0000     -19.150064      -521.0997
   1   2.0000     -19.141710      -520.8724
   2   2.0000     -19.141251      -520.8599
   3   2.0000     -19.133595      -520.6516
   4   2.0000     -10.285870      -279.8927
   5   2.0000     -10.243792      -278.7478
   6   2.0000     -10.229309      -278.3537
   7   2.0000     -10.227739      -278.3109
   8   2.0000     -10.226853      -278.2868
   9   2.0000     -10.224326      -278.2181
  10   2.0000     -10.193640      -277.3830
  11   2.0000     -10.192626      -277.3555
  12   2.0000     -10.192140      -277.3422
  13   2.0000      -1.053463       -28.6662
  14   2.0000      -1.031691       -28.0738
  15   2.0000      -1.014117       -27.5955
  16   2.0000      -0.990652       -26.9570
  17   2.0000      -0.791548       -21.5391
  18   2.0000      -0.778358       -21.1802
  19   2.0000      -0.769604       -20.9420
  20   2.0000      -0.736334       -20.0367
  21   2.0000      -0.681810       -18.5530
  22   2.0000      -0.612310       -16.6618
  23   2.0000      -0.606146       -16.4941
  24   2.0000      -0.600206       -16.3324
  25   2.0000      -0.558668       -15.2021
  26   2.0000      -0.524565       -14.2741
  27   2.0000      -0.511712       -13.9244
  28   2.0000      -0.506770       -13.7899
  29   2.0000      -0.500416       -13.6170
  30   2.0000      -0.468211       -12.7407
  31   2.0000      -0.456962       -12.4346
  32   2.0000      -0.441318       -12.0089
  33   2.0000      -0.439557       -11.9610
  34   2.0000      -0.430579       -11.7166
  35   2.0000      -0.413598       -11.2546
  36   2.0000      -0.413405       -11.2493
  37   2.0000      -0.399665       -10.8754
  38   2.0000      -0.384041       -10.4503
  39   2.0000      -0.367487        -9.9998
  40   2.0000      -0.362816        -9.8727
  41   2.0000      -0.361292        -9.8313
  42   2.0000      -0.349898        -9.5212
  43   2.0000      -0.323777        -8.8104
  44   2.0000      -0.316876        -8.6226
  45   2.0000      -0.312941        -8.5156
  46   2.0000      -0.295153        -8.0315
  47   2.0000      -0.271793        -7.3959
  48   2.0000      -0.268215        -7.2985
  49   2.0000      -0.259156        -7.0520
  50   2.0000      -0.233114        -6.3433
  51   0.0000       0.046066         1.2535
  52   0.0000       0.074873         2.0374
  53   0.0000       0.087010         2.3677
  54   0.0000       0.093282         2.5383
  55   0.0000       0.108768         2.9597

MULLIKEN ATOMIC CHARGES
-----------------------
   0 C :    0.318046
   1 C :   -0.309656
   2 C :   -0.298311
   3 C :   -0.000538
   4 O :   -0.499179
   5 H :    0.119511
   6 H :    0.150725
   7 H :    0.164354
   8 H :    0.145635
   9 H :    0.157310
  10 H :    0.155384
  11 H :    0.143294
  12 C :   -0.017701
  13 H :    0.162582
  14 H :    0.137644
  15 O :   -0.523559
  16 C :    0.101760
  17 C :    0.089591
  18 C :   -0.346436
  19 C :    0.001618
  20 O :   -0.517026
  21 H :    0.144426
  22 H :    0.160817
  23 O :   -0.621189
  24 H :    0.148562
  25 H :    0.164802
  26 H :    0.160695
  27 H :    0.142598
  28 H :    0.364239
Sum of atomic charges:   -0.0000000

LOEWDIN ATOMIC CHARGES
----------------------
   0 C :    0.177773
   1 C :   -0.238068
   2 C :   -0.216068
   3 C :   -0.025614
   4 O :   -0.305767
   5 H :    0.081371
   6 H :    0.118747
   7 H :    0.121863
   8 H :    0.116187
   9 H :    0.114930
  10 H :    0.110002
  11 H :    0.103342
  12 C :   -0.043995
  13 H :    0.117965
  14 H :    0.103750
  15 O :   -0.335108
  16 C :    0.015869
  17 C :    0.035637
  18 C :   -0.244652
  19 C :   -0.022226
  20 O :   -0.319594
  21 H :    0.112828
  22 H :    0.112847
  23 O :   -0.419849
  24 H :    0.116216
  25 H :    0.118457
  26 H :    0.112310
  27 H :    0.101045
  28 H :    0.279801

  Mayer bond orders larger than 0.100000
B(  0-C ,  1-C ) :   0.9300 B(  0-C ,  4-O ) :   0.9304 B(  0-C ,  5-H ) :   0.9081
B(  0-C , 15-O ) :   0.8515 B(  1-C ,  2-C ) :   0.9491 B(  1-C ,  6-H ) :   0.9333
B(  1-C ,  7-H ) :   0.9189 B(  2-C ,  3-C ) :   0.9532 B(  2-C ,  8-H ) :   0.9452
B(  2-C ,  9-H ) :   0.9454 B(  3-C ,  4-O ) :   0.8356 B(  3-C , 10-H ) :   0.9342
B(  3-C , 11-H ) :   0.9396 B( 12-C , 13-H ) :   0.9322 B( 12-C , 14-H ) :   0.8978
B( 12-C , 15-O ) :   0.8614 B( 12-C , 16-C ) :   0.8942 B( 16-C , 17-C ) :   0.8929
B( 16-C , 20-O ) :   0.8777 B( 16-C , 21-H ) :   0.9235 B( 17-C , 18-C ) :   0.9464
B( 17-C , 22-H ) :   0.9307 B( 17-C , 23-O ) :   0.8759 B( 18-C , 19-C ) :   0.9446
B( 18-C , 24-H ) :   0.9398 B( 18-C , 25-H ) :   0.9209 B( 19-C , 20-O ) :   0.8438
B( 19-C , 26-H ) :   0.9295 B( 19-C , 27-H ) :   0.9367 B( 23-O , 28-H ) :   0.7922

FINAL SINGLE POINT ENERGY      -652.849372190442

DIPOLE MOMENT
-------------
                                X             Y             Z
Electronic contribution:     -3.09069      -1.84415      -0.31673
Nuclear contribution   :      4.06306       2.14291      -0.05834
                        -----------------------------------------
Total Dipole Moment    :      0.97237       0.29876      -0.37507
                        -----------------------------------------
Magnitude (a.u.)       :      1.08418
Magnitude (Debye)      :      2.75576

Rotational constants in cm-1:     0.050461     0.015974     0.015015
Rotational constants in MHz :  1512.775733   478.890922   450.124079

                             ****ORCA TERMINATED NORMALLY****
TOTAL RUN TIME: 0 days 0 hours 48 minutes 3 seconds 252 msec
