                         Program Version 4.2.0 -  RELEASE  -
|  1> # Test redundant internal optimization
|  2> #
|  3> ! RKS B3LYP  Opt TightSCF SmallPrint
|  4>
|  5> %basis
|  6>         Basis "6-31G"
|  7> end
|  8>
|  9> %geom
| 10> Constraints
| 11> { D 4  0  15  12  240.0   C } # D for Dihedral angle
| 12> { D 0  15  12  16  0.0   C } # D for Dihedral angle
| 13> { D 0  4  3  2   C } # D for Dihedral angle
| 14> { D 4  3  2  1   C } # D for Dihedral angle
| 15> { D 3  2  1  0   C } # D for Dihedral angle
| 16> { D 2  1  0  4   C } # D for Dihedral angle
| 17> { D 1  0  4  3   C } # D for Dihedral angle
| 18> { D 16  20  19  18   C } # D for Dihedral angle
| 19> { D 20  19  18  17   C } # D for Dihedral angle
| 20> { D 19  18  17  16   C } # D for Dihedral angle
| 21> { D 18  17  16  20   C } # D for Dihedral angle
| 22> { D 17  16  20  19   C } # D for Dihedral angle
| 23> { D 15  12  16  20   C } # D for Dihedral angle
| 24> end
| 25> end
| 26>
| 27>
| 28> #%pal
| 29> #nprocs 8
| 30> #end
| 31>
| 32> * xyz 0 1
| 33> C  -21.048   26.222   46.251
| 34> C  -20.361   27.558   45.944
| 35> C  -20.329   28.222   47.341
| 36> C  -20.110   27.022   48.296
| 37> O  -20.473   25.807   47.535
| 38> H  -20.833   25.428   45.533
| 39> H  -19.344   27.382   45.576
| 40> H  -20.898   28.157   45.201
| 41> H  -19.543   28.978   47.434
| 42> H  -21.289   28.710   47.548
| 43> H  -20.733   27.082   49.195
| 44> H  -19.064   26.913   48.597
| 45> C  -23.430   25.483   45.442
| 46> H  -24.087   24.850   46.052
| 47> H  -24.058   26.090   44.778
| 48> O  -22.586   26.394   46.375
| 49> C  -22.553   24.560   44.551
| 50> C  -21.764   23.555   45.397
| 51> C  -22.842   22.490   45.707
| 52> C  -23.696   22.468   44.414
| 53> O  -23.399   23.723   43.692
| 54> H  -21.940   25.177   43.892
| 55> O  -20.611   22.941   44.557
| 56> H  -21.332   23.999   46.301
| 57> H  -22.415   21.510   45.943
| 58> H  -23.448   22.807   46.565
| 59> H  -24.769   22.418   44.621
| 60> H  -23.425   21.642   43.750
| 61> H  -21.020   22.489   43.645
| 62> *
| 63>
| 64>                          ****END OF INPUT****
 Total Charge           Charge          ....    0
 Multiplicity           Mult            ....    1
 Number of Electrons    NEL             ....  102
FINAL SINGLE POINT ENERGY      -652.818399844761
FINAL SINGLE POINT ENERGY      -652.842809438268
FINAL SINGLE POINT ENERGY      -652.851936749095
FINAL SINGLE POINT ENERGY      -652.853625970738
FINAL SINGLE POINT ENERGY      -652.853910580537
FINAL SINGLE POINT ENERGY      -652.853950234055
FINAL SINGLE POINT ENERGY      -652.853954782988
                    ***********************HURRAY********************

CARTESIAN COORDINATES (ANGSTROEM)
---------------------------------
  C    -20.829990   26.256047   46.269769
  C    -20.289716   27.665674   46.023458
  C    -20.510036   28.339262   47.401586
  C    -20.254811   27.181260   48.392201
  O    -20.371078   25.933690   47.598258
  H    -20.434595   25.499594   45.595261
  H    -19.220902   27.610397   45.784244
  H    -20.811047   28.171121   45.207689
  H    -19.839813   29.187370   47.568527
  H    -21.543410   28.689320   47.476566
  H    -20.982066   27.146096   49.207742
  H    -19.243192   27.193873   48.809392
  C    -23.128657   25.468519   45.419580
  H    -23.810836   24.950414   46.103387
  H    -23.729355   26.134977   44.792131
  O    -22.275521   26.316217   46.250674
  C    -22.477497   24.431341   44.490598
  C    -21.698658   23.295384   45.177060
  C    -22.850753   22.373165   45.674611
  C    -23.911031   22.514714   44.553825
  O    -23.570799   23.743194   43.795576
  H    -21.867187   24.913938   43.721352
  O    -20.833120   22.626634   44.218594
  H    -21.045231   23.603259   45.990478
  H    -22.494211   21.348221   45.799104
  H    -23.229197   22.729063   46.637657
  H    -24.930171   22.609449   44.939684
  H    -23.883669   21.683133   43.842433
  H    -21.333447   22.461673   43.391562

 Multiplicity           Mult            ....    1
 Number of Electrons    NEL             ....  102
 Basis Dimension        Dim             ....  149

ORBITAL ENERGIES
----------------

  NO   OCC          E(Eh)            E(eV)
   0   2.0000     -19.151885      -521.1493
   1   2.0000     -19.141873      -520.8769
   2   2.0000     -19.138205      -520.7770
   3   2.0000     -19.136504      -520.7307
   4   2.0000     -10.278950      -279.7045
   5   2.0000     -10.242921      -278.7240
   6   2.0000     -10.241939      -278.6973
   7   2.0000     -10.235823      -278.5309
   8   2.0000     -10.232547      -278.4417
   9   2.0000     -10.222336      -278.1639
  10   2.0000     -10.191050      -277.3126
  11   2.0000     -10.182041      -277.0674
  12   2.0000     -10.181629      -277.0562
  13   2.0000      -1.049341       -28.5540
  14   2.0000      -1.042009       -28.3545
  15   2.0000      -1.010944       -27.5092
  16   2.0000      -0.989693       -26.9309
  17   2.0000      -0.785988       -21.3878
  18   2.0000      -0.780049       -21.2262
  19   2.0000      -0.768575       -20.9140
  20   2.0000      -0.735794       -20.0220
  21   2.0000      -0.676796       -18.4166
  22   2.0000      -0.610125       -16.6023
  23   2.0000      -0.604994       -16.4627
  24   2.0000      -0.595484       -16.2039
  25   2.0000      -0.573912       -15.6169
  26   2.0000      -0.526385       -14.3237
  27   2.0000      -0.521041       -14.1783
  28   2.0000      -0.498914       -13.5761
  29   2.0000      -0.480220       -13.0675
  30   2.0000      -0.471022       -12.8172
  31   2.0000      -0.460194       -12.5225
  32   2.0000      -0.451444       -12.2844
  33   2.0000      -0.431770       -11.7490
  34   2.0000      -0.426529       -11.6064
  35   2.0000      -0.420364       -11.4387
  36   2.0000      -0.399640       -10.8748
  37   2.0000      -0.396566       -10.7911
  38   2.0000      -0.372853       -10.1458
  39   2.0000      -0.372464       -10.1352
  40   2.0000      -0.366542        -9.9741
  41   2.0000      -0.353377        -9.6159
  42   2.0000      -0.348185        -9.4746
  43   2.0000      -0.334221        -9.0946
  44   2.0000      -0.314529        -8.5588
  45   2.0000      -0.312710        -8.5093
  46   2.0000      -0.307066        -8.3557
  47   2.0000      -0.274539        -7.4706
  48   2.0000      -0.262929        -7.1547
  49   2.0000      -0.251294        -6.8381
  50   2.0000      -0.241448        -6.5701
  51   0.0000       0.060157         1.6370
  52   0.0000       0.074649         2.0313
  53   0.0000       0.092045         2.5047
  54   0.0000       0.097290         2.6474
  55   0.0000       0.099222         2.7000

MULLIKEN ATOMIC CHARGES
-----------------------
   0 C :    0.271517
   1 C :   -0.248108
   2 C :   -0.297158
   3 C :   -0.000963
   4 O :   -0.510265
   5 H :    0.156460
   6 H :    0.142710
   7 H :    0.144230
   8 H :    0.138663
   9 H :    0.163624
  10 H :    0.150487
  11 H :    0.141008
  12 C :    0.024541
  13 H :    0.141058
  14 H :    0.156865
  15 O :   -0.539266
  16 C :    0.020601
  17 C :    0.071812
  18 C :   -0.298843
  19 C :   -0.033877
  20 O :   -0.526313
  21 H :    0.160046
  22 O :   -0.605887
  23 H :    0.193692
  24 H :    0.164344
  25 H :    0.155482
  26 H :    0.150498
  27 H :    0.149134
  28 H :    0.363909
Sum of atomic charges:   -0.0000000

LOEWDIN ATOMIC CHARGES
----------------------
   0 C :    0.170727
   1 C :   -0.219532
   2 C :   -0.215749
   3 C :   -0.025954
   4 O :   -0.321765
   5 H :    0.103761
   6 H :    0.111739
   7 H :    0.117542
   8 H :    0.112745
   9 H :    0.119975
  10 H :    0.106974
  11 H :    0.101693
  12 C :   -0.034055
  13 H :    0.103283
  14 H :    0.112419
  15 O :   -0.338120
  16 C :    0.001426
  17 C :    0.027758
  18 C :   -0.238654
  19 C :   -0.039189
  20 O :   -0.325593
  21 H :    0.112241
  22 O :   -0.414311
  23 H :    0.130475
  24 H :    0.128294
  25 H :    0.119355
  26 H :    0.106169
  27 H :    0.103834
  28 H :    0.282512

  Mayer bond orders larger than 0.100000
B(  0-C ,  1-C ) :   0.9409 B(  0-C ,  4-O ) :   0.9164 B(  0-C ,  5-H ) :   0.9076
B(  0-C , 15-O ) :   0.8448 B(  1-C ,  2-C ) :   0.9578 B(  1-C ,  6-H ) :   0.9374
B(  1-C ,  7-H ) :   0.9396 B(  2-C ,  3-C ) :   0.9541 B(  2-C ,  8-H ) :   0.9457
B(  2-C ,  9-H ) :   0.9432 B(  3-C ,  4-O ) :   0.8359 B(  3-C , 10-H ) :   0.9352
B(  3-C , 11-H ) :   0.9399 B( 12-C , 13-H ) :   0.9275 B( 12-C , 14-H ) :   0.9228
B( 12-C , 15-O ) :   0.8369 B( 12-C , 16-C ) :   0.8907 B( 16-C , 17-C ) :   0.8984
B( 16-C , 20-O ) :   0.8303 B( 16-C , 21-H ) :   0.9235 B( 17-C , 18-C ) :   0.9095
B( 17-C , 22-O ) :   0.8820 B( 17-C , 23-H ) :   0.9130 B( 18-C , 19-C ) :   0.9390
B( 18-C , 24-H ) :   0.9374 B( 18-C , 25-H ) :   0.9334 B( 19-C , 20-O ) :   0.8383
B( 19-C , 26-H ) :   0.9354 B( 19-C , 27-H ) :   0.9378 B( 22-O , 28-H ) :   0.7949

FINAL SINGLE POINT ENERGY      -652.853955926163

DIPOLE MOMENT
-------------
                                X             Y             Z
Electronic contribution:     -0.21292      -2.45812      -2.30665
Nuclear contribution   :     -0.08416       2.69060       2.30873
                        -----------------------------------------
Total Dipole Moment    :     -0.29708       0.23248       0.00209
                        -----------------------------------------
Magnitude (a.u.)       :      0.37724
Magnitude (Debye)      :      0.95887

Rotational constants in cm-1:     0.057808     0.013314     0.012643
Rotational constants in MHz :  1733.031763   399.131656   379.024383

                             ****ORCA TERMINATED NORMALLY****
TOTAL RUN TIME: 0 days 0 hours 23 minutes 19 seconds 536 msec
