                         Program Version 4.2.0 -  RELEASE  -
|  1> # Test redundant internal optimization
|  2> #
|  3> ! RKS B3LYP  Opt TightSCF SmallPrint
|  4>
|  5> %basis
|  6>         Basis "6-31G"
|  7> end
|  8>
|  9> %geom
| 10> Constraints
| 11> { D 4  0  15  12  165.0   C } # D for Dihedral angle
| 12> { D 0  15  12  16  195.0   C } # D for Dihedral angle
| 13> { D 0  4  3  2   C } # D for Dihedral angle
| 14> { D 4  3  2  1   C } # D for Dihedral angle
| 15> { D 3  2  1  0   C } # D for Dihedral angle
| 16> { D 2  1  0  4   C } # D for Dihedral angle
| 17> { D 1  0  4  3   C } # D for Dihedral angle
| 18> { D 16  20  19  18   C } # D for Dihedral angle
| 19> { D 20  19  18  17   C } # D for Dihedral angle
| 20> { D 19  18  17  16   C } # D for Dihedral angle
| 21> { D 18  17  16  20   C } # D for Dihedral angle
| 22> { D 17  16  20  19   C } # D for Dihedral angle
| 23> { D 15  12  16  20   C } # D for Dihedral angle
| 24> end
| 25> end
| 26>
| 27>
| 28> #%pal
| 29> #nprocs 8
| 30> #end
| 31>
| 32> * xyz 0 1
| 33> C  -21.048   26.222   46.251
| 34> C  -20.361   27.558   45.944
| 35> C  -20.329   28.222   47.341
| 36> C  -20.110   27.022   48.296
| 37> O  -20.473   25.807   47.535
| 38> H  -20.833   25.428   45.533
| 39> H  -19.344   27.382   45.576
| 40> H  -20.898   28.157   45.201
| 41> H  -19.543   28.978   47.434
| 42> H  -21.289   28.710   47.548
| 43> H  -20.733   27.082   49.195
| 44> H  -19.064   26.913   48.597
| 45> C  -23.260   27.170   45.210
| 46> H  -22.660   28.057   44.972
| 47> H  -23.315   26.542   44.312
| 48> O  -22.586   26.394   46.375
| 49> C  -24.703   27.633   45.553
| 50> C  -25.378   28.292   44.345
| 51> C  -25.805   27.059   43.513
| 52> C  -26.178   26.017   44.597
| 53> O  -25.554   26.478   45.856
| 54> H  -24.676   28.255   46.450
| 55> H  -26.255   28.864   44.668
| 56> O  -24.433   29.246   43.564
| 57> H  -26.638   27.272   42.835
| 58> H  -24.963   26.703   42.908
| 59> H  -25.806   25.013   44.359
| 60> H  -27.256   25.963   44.772
| 61> H  -23.547   28.696   43.228
| 62> *
| 63>
| 64>                          ****END OF INPUT****
 Total Charge           Charge          ....    0
 Multiplicity           Mult            ....    1
 Number of Electrons    NEL             ....  102
FINAL SINGLE POINT ENERGY      -652.819491930385
FINAL SINGLE POINT ENERGY      -652.843602303347
FINAL SINGLE POINT ENERGY      -652.848770086769
FINAL SINGLE POINT ENERGY      -652.849743061711
FINAL SINGLE POINT ENERGY      -652.849963597472
FINAL SINGLE POINT ENERGY      -652.850019975523
FINAL SINGLE POINT ENERGY      -652.850026284838
FINAL SINGLE POINT ENERGY      -652.850027552355
                    ***********************HURRAY********************

CARTESIAN COORDINATES (ANGSTROEM)
---------------------------------
  C    -21.039868   26.247929   46.191765
  C    -20.232179   27.524201   45.956997
  C    -20.356626   28.243514   47.325961
  C    -20.356881   27.067080   48.324018
  O    -20.689884   25.860899   47.526595
  H    -20.788628   25.412365   45.530782
  H    -19.190929   27.239627   45.765194
  H    -20.566917   28.136471   45.116654
  H    -19.536521   28.945203   47.504764
  H    -21.300110   28.795711   47.375988
  H    -21.099656   27.175355   49.118191
  H    -19.373180   26.886561   48.767758
  C    -23.102265   27.150683   45.086737
  H    -22.564864   28.075822   44.840054
  H    -23.115265   26.509382   44.190046
  O    -22.488285   26.445580   46.191336
  C    -24.517016   27.538660   45.513787
  C    -25.312920   28.270263   44.420565
  C    -25.869225   27.082088   43.579400
  C    -26.137355   26.004527   44.653445
  O    -25.355741   26.395740   45.853349
  H    -24.435071   28.127922   46.431650
  H    -26.130981   28.828272   44.881355
  O    -24.568859   29.260828   43.667316
  H    -26.765042   27.356420   43.016068
  H    -25.104993   26.752273   42.862647
  H    -25.830399   25.002443   44.338737
  H    -27.189214   25.972219   44.953323
  H    -24.019125   28.826959   42.983518

 Multiplicity           Mult            ....    1
 Number of Electrons    NEL             ....  102
 Basis Dimension        Dim             ....  149

ORBITAL ENERGIES
----------------

  NO   OCC          E(Eh)            E(eV)
   0   2.0000     -19.152608      -521.1689
   1   2.0000     -19.136700      -520.7361
   2   2.0000     -19.136068      -520.7189
   3   2.0000     -19.135090      -520.6923
   4   2.0000     -10.277882      -279.6754
   5   2.0000     -10.246505      -278.8216
   6   2.0000     -10.231390      -278.4103
   7   2.0000     -10.230626      -278.3895
   8   2.0000     -10.229421      -278.3567
   9   2.0000     -10.222805      -278.1767
  10   2.0000     -10.197415      -277.4858
  11   2.0000     -10.189458      -277.2693
  12   2.0000     -10.187702      -277.2215
  13   2.0000      -1.050605       -28.5884
  14   2.0000      -1.035148       -28.1678
  15   2.0000      -1.015844       -27.6425
  16   2.0000      -0.989746       -26.9324
  17   2.0000      -0.786572       -21.4037
  18   2.0000      -0.783688       -21.3252
  19   2.0000      -0.768948       -20.9241
  20   2.0000      -0.730865       -19.8878
  21   2.0000      -0.682686       -18.5768
  22   2.0000      -0.612943       -16.6790
  23   2.0000      -0.601781       -16.3753
  24   2.0000      -0.589311       -16.0360
  25   2.0000      -0.573716       -15.6116
  26   2.0000      -0.526774       -14.3343
  27   2.0000      -0.512161       -13.9366
  28   2.0000      -0.501909       -13.6576
  29   2.0000      -0.495133       -13.4733
  30   2.0000      -0.466325       -12.6894
  31   2.0000      -0.458762       -12.4836
  32   2.0000      -0.449573       -12.2335
  33   2.0000      -0.433862       -11.8060
  34   2.0000      -0.430546       -11.7157
  35   2.0000      -0.418524       -11.3886
  36   2.0000      -0.407784       -11.0964
  37   2.0000      -0.397184       -10.8079
  38   2.0000      -0.378410       -10.2970
  39   2.0000      -0.374450       -10.1893
  40   2.0000      -0.358336        -9.7508
  41   2.0000      -0.356491        -9.7006
  42   2.0000      -0.351856        -9.5745
  43   2.0000      -0.331482        -9.0201
  44   2.0000      -0.317414        -8.6373
  45   2.0000      -0.309058        -8.4099
  46   2.0000      -0.295035        -8.0283
  47   2.0000      -0.272847        -7.4246
  48   2.0000      -0.258546        -7.0354
  49   2.0000      -0.248866        -6.7720
  50   2.0000      -0.239600        -6.5198
  51   0.0000       0.047504         1.2927
  52   0.0000       0.074093         2.0162
  53   0.0000       0.085563         2.3283
  54   0.0000       0.090013         2.4494
  55   0.0000       0.105770         2.8781

MULLIKEN ATOMIC CHARGES
-----------------------
   0 C :    0.316262
   1 C :   -0.296552
   2 C :   -0.297832
   3 C :    0.000255
   4 O :   -0.496874
   5 H :    0.141507
   6 H :    0.151244
   7 H :    0.141320
   8 H :    0.143300
   9 H :    0.157672
  10 H :    0.156808
  11 H :    0.141705
  12 C :   -0.015719
  13 H :    0.128802
  14 H :    0.112623
  15 O :   -0.503532
  16 C :    0.099166
  17 C :    0.081854
  18 C :   -0.327439
  19 C :   -0.007679
  20 O :   -0.499140
  21 H :    0.162384
  22 H :    0.168818
  23 O :   -0.600382
  24 H :    0.157985
  25 H :    0.132490
  26 H :    0.146109
  27 H :    0.150225
  28 H :    0.354618
Sum of atomic charges:   -0.0000000

LOEWDIN ATOMIC CHARGES
----------------------
   0 C :    0.183620
   1 C :   -0.235716
   2 C :   -0.216719
   3 C :   -0.025425
   4 O :   -0.300794
   5 H :    0.097044
   6 H :    0.118361
   7 H :    0.111858
   8 H :    0.114872
   9 H :    0.115347
  10 H :    0.110769
  11 H :    0.102384
  12 C :   -0.054227
  13 H :    0.094379
  14 H :    0.083591
  15 O :   -0.320534
  16 C :    0.023731
  17 C :    0.033725
  18 C :   -0.242000
  19 C :   -0.029024
  20 O :   -0.308043
  21 H :    0.118918
  22 H :    0.119883
  23 O :   -0.408889
  24 H :    0.122405
  25 H :    0.102870
  26 H :    0.104379
  27 H :    0.106220
  28 H :    0.277015

  Mayer bond orders larger than 0.100000
B(  0-C ,  1-C ) :   0.9273 B(  0-C ,  4-O ) :   0.9382 B(  0-C ,  5-H ) :   0.9227
B(  0-C , 15-O ) :   0.8381 B(  1-C ,  2-C ) :   0.9504 B(  1-C ,  6-H ) :   0.9337
B(  1-C ,  7-H ) :   0.9278 B(  2-C ,  3-C ) :   0.9546 B(  2-C ,  8-H ) :   0.9452
B(  2-C ,  9-H ) :   0.9450 B(  3-C ,  4-O ) :   0.8361 B(  3-C , 10-H ) :   0.9340
B(  3-C , 11-H ) :   0.9397 B( 12-C , 13-H ) :   0.8890 B( 12-C , 14-H ) :   0.9160
B( 12-C , 15-O ) :   0.8546 B( 12-C , 16-C ) :   0.9056 B( 16-C , 17-C ) :   0.8718
B( 16-C , 20-O ) :   0.8779 B( 16-C , 21-H ) :   0.9294 B( 17-C , 18-C ) :   0.9257
B( 17-C , 22-H ) :   0.9333 B( 17-C , 23-O ) :   0.8915 B( 18-C , 19-C ) :   0.9388
B( 18-C , 24-H ) :   0.9413 B( 18-C , 25-H ) :   0.9405 B( 19-C , 20-O ) :   0.8522
B( 19-C , 26-H ) :   0.9314 B( 19-C , 27-H ) :   0.9374 B( 23-O , 28-H ) :   0.7998

FINAL SINGLE POINT ENERGY      -652.850027619102

DIPOLE MOMENT
-------------
                                X             Y             Z
Electronic contribution:     -1.79147      -2.52948       1.97220
Nuclear contribution   :      2.17165       3.18118      -3.33860
                        -----------------------------------------
Total Dipole Moment    :      0.38018       0.65170      -1.36639
                        -----------------------------------------
Magnitude (a.u.)       :      1.56086
Magnitude (Debye)      :      3.96739

Rotational constants in cm-1:     0.054667     0.012909     0.011575
Rotational constants in MHz :  1638.878144   386.989751   347.021755

                             ****ORCA TERMINATED NORMALLY****
TOTAL RUN TIME: 0 days 1 hours 50 minutes 34 seconds 81 msec
