                         Program Version 4.2.0 -  RELEASE  -
|  1> # Test redundant internal optimization
|  2> #
|  3> ! RKS B3LYP  Opt TightSCF SmallPrint
|  4>
|  5> %basis
|  6>         Basis "6-31G"
|  7> end
|  8>
|  9> %geom
| 10> Constraints
| 11> { D 4  0  15  12  210.0   C } # D for Dihedral angle
| 12> { D 0  15  12  16  105.0   C } # D for Dihedral angle
| 13> { D 0  4  3  2   C } # D for Dihedral angle
| 14> { D 4  3  2  1   C } # D for Dihedral angle
| 15> { D 3  2  1  0   C } # D for Dihedral angle
| 16> { D 2  1  0  4   C } # D for Dihedral angle
| 17> { D 1  0  4  3   C } # D for Dihedral angle
| 18> { D 16  20  19  18   C } # D for Dihedral angle
| 19> { D 20  19  18  17   C } # D for Dihedral angle
| 20> { D 19  18  17  16   C } # D for Dihedral angle
| 21> { D 18  17  16  20   C } # D for Dihedral angle
| 22> { D 17  16  20  19   C } # D for Dihedral angle
| 23> { D 15  12  16  20   C } # D for Dihedral angle
| 24> end
| 25> end
| 26>
| 27>
| 28> #%pal
| 29> #nprocs 8
| 30> #end
| 31>
| 32> * xyz 0 1
| 33> C  -21.048   26.222   46.251
| 34> C  -20.361   27.558   45.944
| 35> C  -20.329   28.222   47.341
| 36> C  -20.110   27.022   48.296
| 37> O  -20.473   25.807   47.535
| 38> H  -20.833   25.428   45.533
| 39> H  -19.344   27.382   45.576
| 40> H  -20.898   28.157   45.201
| 41> H  -19.543   28.978   47.434
| 42> H  -21.289   28.710   47.548
| 43> H  -20.733   27.082   49.195
| 44> H  -19.064   26.913   48.597
| 45> C  -23.389   26.110   45.076
| 46> H  -24.131   26.905   44.928
| 47> H  -22.720   26.099   44.206
| 48> O  -22.586   26.394   46.375
| 49> C  -24.135   24.748   45.117
| 50> C  -25.216   24.737   46.203
| 51> C  -26.360   25.518   45.515
| 52> C  -26.233   25.092   44.030
| 53> O  -24.875   24.532   43.869
| 54> H  -23.403   23.942   45.198
| 55> O  -25.652   23.277   46.506
| 56> H  -24.889   25.200   47.141
| 57> H  -27.345   25.285   45.933
| 58> H  -26.197   26.597   45.623
| 59> H  -26.359   25.934   43.341
| 60> H  -26.942   24.305   43.760
| 61> H  -25.985   22.793   45.580
| 62> *
| 63>
| 64>                          ****END OF INPUT****
 Total Charge           Charge          ....    0
 Multiplicity           Mult            ....    1
 Number of Electrons    NEL             ....  102
FINAL SINGLE POINT ENERGY      -652.836498782782
FINAL SINGLE POINT ENERGY      -652.858805452044
FINAL SINGLE POINT ENERGY      -652.861833672388
FINAL SINGLE POINT ENERGY      -652.862390698577
FINAL SINGLE POINT ENERGY      -652.862483712358
FINAL SINGLE POINT ENERGY      -652.862493414982
FINAL SINGLE POINT ENERGY      -652.862494902343
                    ***********************HURRAY********************

CARTESIAN COORDINATES (ANGSTROEM)
---------------------------------
  C    -21.118921   26.180799   46.170682
  C    -20.392397   27.499385   45.917025
  C    -20.436990   28.163706   47.313517
  C    -20.302692   26.961819   48.271569
  O    -20.646023   25.763609   47.458497
  H    -20.898339   25.377337   45.460960
  H    -19.358634   27.293032   45.614461
  H    -20.868558   28.102329   45.138882
  H    -19.641647   28.901660   47.453962
  H    -21.401428   28.661126   47.452888
  H    -20.984104   27.009294   49.124215
  H    -19.279973   26.812482   48.629630
  C    -23.315988   26.154432   45.024522
  H    -24.004809   26.996705   44.901168
  H    -22.660646   26.124632   44.144315
  O    -22.560714   26.392590   46.248349
  C    -24.077754   24.831774   45.126867
  C    -25.137986   24.781277   46.236059
  C    -26.318677   25.535369   45.574266
  C    -26.211735   25.126510   44.084152
  O    -24.834486   24.603490   43.888966
  H    -23.370419   24.003134   45.230186
  O    -25.489781   23.405942   46.552448
  H    -24.794956   25.224179   47.169354
  H    -27.267162   25.239939   46.029385
  H    -26.200265   26.617331   45.701017
  H    -26.372673   25.964118   43.398484
  H    -26.902329   24.320251   43.818158
  H    -25.591913   22.900748   45.718016

 Multiplicity           Mult            ....    1
 Number of Electrons    NEL             ....  102
 Basis Dimension        Dim             ....  149

ORBITAL ENERGIES
----------------

  NO   OCC          E(Eh)            E(eV)
   0   2.0000     -19.144798      -520.9564
   1   2.0000     -19.143999      -520.9347
   2   2.0000     -19.141551      -520.8681
   3   2.0000     -19.132184      -520.6132
   4   2.0000     -10.282071      -279.7894
   5   2.0000     -10.234040      -278.4824
   6   2.0000     -10.233220      -278.4601
   7   2.0000     -10.231743      -278.4199
   8   2.0000     -10.231373      -278.4098
   9   2.0000     -10.225600      -278.2527
  10   2.0000     -10.187481      -277.2155
  11   2.0000     -10.187032      -277.2032
  12   2.0000     -10.186507      -277.1890
  13   2.0000      -1.054373       -28.6909
  14   2.0000      -1.034528       -28.1509
  15   2.0000      -1.002322       -27.2746
  16   2.0000      -0.996404       -27.1135
  17   2.0000      -0.788585       -21.4585
  18   2.0000      -0.777900       -21.1677
  19   2.0000      -0.766519       -20.8580
  20   2.0000      -0.731905       -19.9162
  21   2.0000      -0.675681       -18.3862
  22   2.0000      -0.602158       -16.3855
  23   2.0000      -0.601950       -16.3799
  24   2.0000      -0.597013       -16.2455
  25   2.0000      -0.577581       -15.7168
  26   2.0000      -0.520667       -14.1681
  27   2.0000      -0.519188       -14.1278
  28   2.0000      -0.495665       -13.4877
  29   2.0000      -0.490671       -13.3518
  30   2.0000      -0.468576       -12.7506
  31   2.0000      -0.458266       -12.4700
  32   2.0000      -0.454209       -12.3597
  33   2.0000      -0.438927       -11.9438
  34   2.0000      -0.425094       -11.5674
  35   2.0000      -0.412594       -11.2273
  36   2.0000      -0.400774       -10.9056
  37   2.0000      -0.390590       -10.6285
  38   2.0000      -0.375244       -10.2109
  39   2.0000      -0.366639        -9.9768
  40   2.0000      -0.359622        -9.7858
  41   2.0000      -0.356869        -9.7109
  42   2.0000      -0.354586        -9.6488
  43   2.0000      -0.331050        -9.0083
  44   2.0000      -0.315085        -8.5739
  45   2.0000      -0.313310        -8.5256
  46   2.0000      -0.301467        -8.2033
  47   2.0000      -0.276122        -7.5137
  48   2.0000      -0.262223        -7.1354
  49   2.0000      -0.255639        -6.9563
  50   2.0000      -0.239288        -6.5114
  51   0.0000       0.065607         1.7853
  52   0.0000       0.074426         2.0252
  53   0.0000       0.095191         2.5903
  54   0.0000       0.099739         2.7140
  55   0.0000       0.104397         2.8408

MULLIKEN ATOMIC CHARGES
-----------------------
   0 C :    0.291747
   1 C :   -0.260251
   2 C :   -0.299886
   3 C :   -0.002188
   4 O :   -0.501170
   5 H :    0.142250
   6 H :    0.144326
   7 H :    0.144217
   8 H :    0.142520
   9 H :    0.161222
  10 H :    0.155227
  11 H :    0.142675
  12 C :   -0.033266
  13 H :    0.143416
  14 H :    0.143476
  15 O :   -0.512379
  16 C :    0.061630
  17 C :    0.095988
  18 C :   -0.300228
  19 C :   -0.034763
  20 O :   -0.527711
  21 H :    0.163098
  22 O :   -0.602799
  23 H :    0.179063
  24 H :    0.160970
  25 H :    0.146845
  26 H :    0.146558
  27 H :    0.148333
  28 H :    0.361079
Sum of atomic charges:   -0.0000000

LOEWDIN ATOMIC CHARGES
----------------------
   0 C :    0.178984
   1 C :   -0.227112
   2 C :   -0.216879
   3 C :   -0.024846
   4 O :   -0.304959
   5 H :    0.098020
   6 H :    0.113436
   7 H :    0.115607
   8 H :    0.114656
   9 H :    0.118801
  10 H :    0.109889
  11 H :    0.102988
  12 C :   -0.043920
  13 H :    0.105333
  14 H :    0.104376
  15 O :   -0.338009
  16 C :    0.008939
  17 C :    0.039918
  18 C :   -0.241978
  19 C :   -0.039376
  20 O :   -0.334047
  21 H :    0.116274
  22 O :   -0.413699
  23 H :    0.129758
  24 H :    0.126496
  25 H :    0.114007
  26 H :    0.103703
  27 H :    0.103166
  28 H :    0.280472

  Mayer bond orders larger than 0.100000
B(  0-C ,  1-C ) :   0.9332 B(  0-C ,  4-O ) :   0.9415 B(  0-C ,  5-H ) :   0.9191
B(  0-C , 15-O ) :   0.8247 B(  1-C ,  2-C ) :   0.9540 B(  1-C ,  6-H ) :   0.9341
B(  1-C ,  7-H ) :   0.9381 B(  2-C ,  3-C ) :   0.9554 B(  2-C ,  8-H ) :   0.9449
B(  2-C ,  9-H ) :   0.9438 B(  3-C ,  4-O ) :   0.8344 B(  3-C , 10-H ) :   0.9344
B(  3-C , 11-H ) :   0.9397 B( 12-C , 13-H ) :   0.9353 B( 12-C , 14-H ) :   0.9202
B( 12-C , 15-O ) :   0.8410 B( 12-C , 16-C ) :   0.8838 B( 16-C , 17-C ) :   0.9147
B( 16-C , 20-O ) :   0.8400 B( 16-C , 21-H ) :   0.9274 B( 17-C , 18-C ) :   0.9122
B( 17-C , 22-O ) :   0.8888 B( 17-C , 23-H ) :   0.9233 B( 18-C , 19-C ) :   0.9409
B( 18-C , 24-H ) :   0.9382 B( 18-C , 25-H ) :   0.9345 B( 19-C , 20-O ) :   0.8435
B( 19-C , 26-H ) :   0.9355 B( 19-C , 27-H ) :   0.9379 B( 22-O , 28-H ) :   0.7968

FINAL SINGLE POINT ENERGY      -652.862494790621

DIPOLE MOMENT
-------------
                                X             Y             Z
Electronic contribution:     -0.75562      -5.39622       0.12988
Nuclear contribution   :      0.86952       6.70979      -0.78743
                        -----------------------------------------
Total Dipole Moment    :      0.11390       1.31356      -0.65755
                        -----------------------------------------
Magnitude (a.u.)       :      1.47336
Magnitude (Debye)      :      3.74499

Rotational constants in cm-1:     0.060221     0.011972     0.011196
Rotational constants in MHz :  1805.389347   358.909006   335.647615

                             ****ORCA TERMINATED NORMALLY****
TOTAL RUN TIME: 0 days 0 hours 19 minutes 1 seconds 954 msec
