                         Program Version 4.2.0 -  RELEASE  -
|  1> # Test redundant internal optimization
|  2> #
|  3> ! RKS B3LYP  Opt TightSCF SmallPrint
|  4>
|  5> %basis
|  6>         Basis "6-31G"
|  7> end
|  8>
|  9> %geom
| 10> Constraints
| 11> { D 4  0  15  12  60.0   C } # D for Dihedral angle
| 12> { D 0  15  12  16  240.0   C } # D for Dihedral angle
| 13> { D 0  4  3  2   C } # D for Dihedral angle
| 14> { D 4  3  2  1   C } # D for Dihedral angle
| 15> { D 3  2  1  0   C } # D for Dihedral angle
| 16> { D 2  1  0  4   C } # D for Dihedral angle
| 17> { D 1  0  4  3   C } # D for Dihedral angle
| 18> { D 16  20  19  18   C } # D for Dihedral angle
| 19> { D 20  19  18  17   C } # D for Dihedral angle
| 20> { D 19  18  17  16   C } # D for Dihedral angle
| 21> { D 18  17  16  20   C } # D for Dihedral angle
| 22> { D 17  16  20  19   C } # D for Dihedral angle
| 23> { D 15  12  16  20   C } # D for Dihedral angle
| 24> end
| 25> end
| 26>
| 27>
| 28> #%pal
| 29> #nprocs 8
| 30> #end
| 31>
| 32> * xyz 0 1
| 33> C  -21.048   26.222   46.251
| 34> C  -20.361   27.558   45.944
| 35> C  -20.329   28.222   47.341
| 36> C  -20.110   27.022   48.296
| 37> O  -20.473   25.807   47.535
| 38> H  -20.833   25.428   45.533
| 39> H  -19.344   27.382   45.576
| 40> H  -20.898   28.157   45.201
| 41> H  -19.543   28.978   47.434
| 42> H  -21.289   28.710   47.548
| 43> H  -20.733   27.082   49.195
| 44> H  -19.064   26.913   48.597
| 45> C  -23.051   27.452   47.413
| 46> H  -22.171   27.909   47.883
| 47> H  -23.628   28.245   46.921
| 48> O  -22.586   26.394   46.375
| 49> C  -23.941   26.844   48.533
| 50> C  -25.149   26.106   47.944
| 51> C  -24.515   24.764   47.507
| 52> C  -23.445   24.509   48.598
| 53> O  -23.207   25.807   49.265
| 54> H  -24.195   27.625   49.251
| 55> H  -25.904   25.942   48.721
| 56> O  -25.816   26.868   46.766
| 57> H  -25.244   23.951   47.440
| 58> H  -24.043   24.873   46.523
| 59> H  -22.501   24.140   48.183
| 60> H  -23.791   23.811   49.367
| 61> H  -25.077   27.044   45.976
| 62> *
| 63>
| 64>                          ****END OF INPUT****
 Total Charge           Charge          ....    0
 Multiplicity           Mult            ....    1
 Number of Electrons    NEL             ....  102
FINAL SINGLE POINT ENERGY      -652.800587510330
FINAL SINGLE POINT ENERGY      -652.835459999333
FINAL SINGLE POINT ENERGY      -652.853053148481
FINAL SINGLE POINT ENERGY      -652.856602657395
FINAL SINGLE POINT ENERGY      -652.857149592462
FINAL SINGLE POINT ENERGY      -652.857259849430
FINAL SINGLE POINT ENERGY      -652.857278011673
FINAL SINGLE POINT ENERGY      -652.857279798846
                    ***********************HURRAY********************

CARTESIAN COORDINATES (ANGSTROEM)
---------------------------------
  C    -21.134721   26.414434   46.389456
  C    -20.300782   27.625366   45.947338
  C    -19.965094   28.306249   47.307681
  C    -19.800518   27.090570   48.256621
  O    -20.459258   25.948325   47.574313
  H    -21.096601   25.591547   45.673553
  H    -19.388402   27.262017   45.463036
  H    -20.835702   28.276540   45.251026
  H    -19.046975   28.900144   47.253592
  H    -20.766737   28.976721   47.626165
  H    -20.273024   27.228086   49.232749
  H    -18.752001   26.813255   48.397416
  C    -23.175236   27.513829   47.493878
  H    -22.421213   28.044367   48.077222
  H    -23.762842   28.247792   46.929436
  O    -22.559509   26.598646   46.535979
  C    -24.089545   26.785425   48.479336
  C    -25.257376   26.013417   47.840578
  C    -24.583621   24.656061   47.469403
  C    -23.580285   24.451280   48.625652
  O    -23.398082   25.780049   49.268197
  H    -24.457326   27.540968   49.185176
  H    -26.055189   25.872703   48.573066
  O    -25.885630   26.695805   46.726736
  H    -25.313077   23.843903   47.393624
  H    -24.062054   24.767736   46.516287
  H    -22.602253   24.102879   48.288222
  H    -23.964836   23.778621   49.399134
  H    -25.301112   26.638264   45.942130

 Multiplicity           Mult            ....    1
 Number of Electrons    NEL             ....  102
 Basis Dimension        Dim             ....  149

ORBITAL ENERGIES
----------------

  NO   OCC          E(Eh)            E(eV)
   0   2.0000     -19.148033      -521.0445
   1   2.0000     -19.144869      -520.9584
   2   2.0000     -19.135225      -520.6959
   3   2.0000     -19.127476      -520.4851
   4   2.0000     -10.284081      -279.8441
   5   2.0000     -10.231332      -278.4087
   6   2.0000     -10.230908      -278.3972
   7   2.0000     -10.230294      -278.3805
   8   2.0000     -10.225329      -278.2454
   9   2.0000     -10.212805      -277.9046
  10   2.0000     -10.195969      -277.4464
  11   2.0000     -10.193828      -277.3882
  12   2.0000     -10.173479      -276.8344
  13   2.0000      -1.055092       -28.7105
  14   2.0000      -1.021864       -27.8063
  15   2.0000      -1.004535       -27.3348
  16   2.0000      -0.995695       -27.0942
  17   2.0000      -0.791223       -21.5303
  18   2.0000      -0.773607       -21.0509
  19   2.0000      -0.761404       -20.7188
  20   2.0000      -0.732465       -19.9314
  21   2.0000      -0.678044       -18.4505
  22   2.0000      -0.607501       -16.5309
  23   2.0000      -0.602084       -16.3835
  24   2.0000      -0.595421       -16.2022
  25   2.0000      -0.559507       -15.2250
  26   2.0000      -0.526497       -14.3267
  27   2.0000      -0.507543       -13.8110
  28   2.0000      -0.495995       -13.4967
  29   2.0000      -0.488564       -13.2945
  30   2.0000      -0.468455       -12.7473
  31   2.0000      -0.458294       -12.4708
  32   2.0000      -0.437631       -11.9085
  33   2.0000      -0.428083       -11.6487
  34   2.0000      -0.422390       -11.4938
  35   2.0000      -0.413722       -11.2579
  36   2.0000      -0.402537       -10.9536
  37   2.0000      -0.392795       -10.6885
  38   2.0000      -0.385739       -10.4965
  39   2.0000      -0.367530       -10.0010
  40   2.0000      -0.362334        -9.8596
  41   2.0000      -0.354104        -9.6356
  42   2.0000      -0.344068        -9.3626
  43   2.0000      -0.321709        -8.7541
  44   2.0000      -0.315566        -8.5870
  45   2.0000      -0.308846        -8.4041
  46   2.0000      -0.300709        -8.1827
  47   2.0000      -0.270240        -7.3536
  48   2.0000      -0.259101        -7.0505
  49   2.0000      -0.255332        -6.9479
  50   2.0000      -0.230020        -6.2592
  51   0.0000       0.064317         1.7502
  52   0.0000       0.086753         2.3607
  53   0.0000       0.093624         2.5476
  54   0.0000       0.097015         2.6399
  55   0.0000       0.107494         2.9251

MULLIKEN ATOMIC CHARGES
-----------------------
   0 C :    0.309474
   1 C :   -0.271620
   2 C :   -0.322651
   3 C :   -0.013417
   4 O :   -0.500965
   5 H :    0.161513
   6 H :    0.155153
   7 H :    0.149572
   8 H :    0.147404
   9 H :    0.152403
  10 H :    0.163252
  11 H :    0.148100
  12 C :   -0.026485
  13 H :    0.143870
  14 H :    0.144889
  15 O :   -0.545816
  16 C :    0.102052
  17 C :    0.081981
  18 C :   -0.313291
  19 C :   -0.007981
  20 O :   -0.521748
  21 H :    0.142764
  22 H :    0.160661
  23 O :   -0.608769
  24 H :    0.141182
  25 H :    0.163259
  26 H :    0.164320
  27 H :    0.136758
  28 H :    0.364135
Sum of atomic charges:   -0.0000000

LOEWDIN ATOMIC CHARGES
----------------------
   0 C :    0.177363
   1 C :   -0.227440
   2 C :   -0.225636
   3 C :   -0.033376
   4 O :   -0.315584
   5 H :    0.110748
   6 H :    0.121256
   7 H :    0.119129
   8 H :    0.116625
   9 H :    0.109883
  10 H :    0.111842
  11 H :    0.105790
  12 C :   -0.048713
  13 H :    0.106361
  14 H :    0.107206
  15 O :   -0.335831
  16 C :    0.015120
  17 C :    0.035839
  18 C :   -0.243094
  19 C :   -0.026197
  20 O :   -0.322887
  21 H :    0.111043
  22 H :    0.115206
  23 O :   -0.413979
  24 H :    0.113425
  25 H :    0.120723
  26 H :    0.114008
  27 H :    0.098637
  28 H :    0.282530

  Mayer bond orders larger than 0.100000
B(  0-C ,  1-C ) :   0.9213 B(  0-C ,  4-O ) :   0.9109 B(  0-C ,  5-H ) :   0.9366
B(  0-C , 15-O ) :   0.8773 B(  1-C ,  2-C ) :   0.9549 B(  1-C ,  6-H ) :   0.9347
B(  1-C ,  7-H ) :   0.9377 B(  2-C ,  3-C ) :   0.9465 B(  2-C ,  8-H ) :   0.9443
B(  2-C ,  9-H ) :   0.9377 B(  3-C ,  4-O ) :   0.8369 B(  3-C , 10-H ) :   0.9294
B(  3-C , 11-H ) :   0.9385 B( 12-C , 13-H ) :   0.9139 B( 12-C , 14-H ) :   0.9178
B( 12-C , 15-O ) :   0.8320 B( 12-C , 16-C ) :   0.8938 B( 16-C , 17-C ) :   0.8900
B( 16-C , 20-O ) :   0.8879 B( 16-C , 21-H ) :   0.9250 B( 17-C , 18-C ) :   0.9348
B( 17-C , 22-H ) :   0.9362 B( 17-C , 23-O ) :   0.8974 B( 18-C , 19-C ) :   0.9458
B( 18-C , 24-H ) :   0.9411 B( 18-C , 25-H ) :   0.9273 B( 19-C , 20-O ) :   0.8306
B( 19-C , 26-H ) :   0.9258 B( 19-C , 27-H ) :   0.9378 B( 23-O , 28-H ) :   0.7937

FINAL SINGLE POINT ENERGY      -652.857278656800

DIPOLE MOMENT
-------------
                                X             Y             Z
Electronic contribution:     -3.02602      -1.90324       0.57325
Nuclear contribution   :      3.95575       2.51110      -1.11569
                        -----------------------------------------
Total Dipole Moment    :      0.92973       0.60786      -0.54245
                        -----------------------------------------
Magnitude (a.u.)       :      1.23618
Magnitude (Debye)      :      3.14212

Rotational constants in cm-1:     0.049774     0.017298     0.015665
Rotational constants in MHz :  1492.173274   518.585120   469.624679

                             ****ORCA TERMINATED NORMALLY****
TOTAL RUN TIME: 0 days 0 hours 33 minutes 34 seconds 417 msec
