                         Program Version 4.2.0 -  RELEASE  -
|  1> # Test redundant internal optimization
|  2> #
|  3> ! RKS B3LYP  Opt TightSCF SmallPrint
|  4>
|  5> %basis
|  6>         Basis "6-31G"
|  7> end
|  8>
|  9> %geom
| 10> Constraints
| 11> { D 4  0  15  12  210.0   C } # D for Dihedral angle
| 12> { D 0  15  12  16  75.0   C } # D for Dihedral angle
| 13> { D 0  4  3  2   C } # D for Dihedral angle
| 14> { D 4  3  2  1   C } # D for Dihedral angle
| 15> { D 3  2  1  0   C } # D for Dihedral angle
| 16> { D 2  1  0  4   C } # D for Dihedral angle
| 17> { D 1  0  4  3   C } # D for Dihedral angle
| 18> { D 16  20  19  18   C } # D for Dihedral angle
| 19> { D 20  19  18  17   C } # D for Dihedral angle
| 20> { D 19  18  17  16   C } # D for Dihedral angle
| 21> { D 18  17  16  20   C } # D for Dihedral angle
| 22> { D 17  16  20  19   C } # D for Dihedral angle
| 23> { D 15  12  16  20   C } # D for Dihedral angle
| 24> end
| 25> end
| 26>
| 27>
| 28> #%pal
| 29> #nprocs 8
| 30> #end
| 31>
| 32> * xyz 0 1
| 33> C  -21.048   26.222   46.251
| 34> C  -20.361   27.558   45.944
| 35> C  -20.329   28.222   47.341
| 36> C  -20.110   27.022   48.296
| 37> O  -20.473   25.807   47.535
| 38> H  -20.833   25.428   45.533
| 39> H  -19.344   27.382   45.576
| 40> H  -20.898   28.157   45.201
| 41> H  -19.543   28.978   47.434
| 42> H  -21.289   28.710   47.548
| 43> H  -20.733   27.082   49.195
| 44> H  -19.064   26.913   48.597
| 45> C  -23.389   26.110   45.076
| 46> H  -24.402   26.518   45.181
| 47> H  -22.911   26.596   44.215
| 48> O  -22.586   26.394   46.375
| 49> C  -23.503   24.593   44.760
| 50> C  -22.121   23.934   44.688
| 51> C  -21.782   23.753   46.187
| 52> C  -23.160   23.444   46.824
| 53> O  -24.182   23.891   45.853
| 54> H  -24.114   24.459   43.865
| 55> O  -22.224   22.556   43.979
| 56> H  -21.381   24.541   44.156
| 57> H  -21.052   22.956   46.364
| 58> H  -21.368   24.683   46.594
| 59> H  -23.311   23.969   47.773
| 60> H  -23.315   22.373   46.984
| 61> H  -22.960   21.930   44.496
| 62> *
| 63>
| 64>                          ****END OF INPUT****
 Total Charge           Charge          ....    0
 Multiplicity           Mult            ....    1
 Number of Electrons    NEL             ....  102
FINAL SINGLE POINT ENERGY      -652.772937301409
FINAL SINGLE POINT ENERGY      -652.828878092989
FINAL SINGLE POINT ENERGY      -652.848346901741
FINAL SINGLE POINT ENERGY      -652.852590721087
FINAL SINGLE POINT ENERGY      -652.853255021813
FINAL SINGLE POINT ENERGY      -652.853345970953
FINAL SINGLE POINT ENERGY      -652.853358760354
FINAL SINGLE POINT ENERGY      -652.853362529286
                    ***********************HURRAY********************

CARTESIAN COORDINATES (ANGSTROEM)
---------------------------------
  C    -20.932784   26.364144   46.362467
  C    -20.272933   27.686878   45.976206
  C    -20.391726   28.501083   47.288672
  C    -20.217110   27.421813   48.377755
  O    -20.471820   26.122893   47.698849
  H    -20.638716   25.521861   45.740855
  H    -19.221442   27.510934   45.718747
  H    -20.762517   28.170584   45.126294
  H    -19.641742   29.294295   47.361622
  H    -21.385559   28.952712   47.351142
  H    -20.923751   27.523300   49.204721
  H    -19.197716   27.371871   48.771526
  C    -23.139566   26.128286   45.223317
  H    -24.124172   26.567086   45.400715
  H    -22.718713   26.596644   44.317023
  O    -22.380120   26.527536   46.396515
  C    -23.374976   24.635400   44.923681
  C    -22.217027   23.669995   44.605020
  C    -21.791328   23.189833   46.029737
  C    -23.149577   23.143846   46.780641
  O    -24.097614   23.964191   45.999072
  H    -24.052194   24.644190   44.057298
  O    -22.695327   22.567928   43.788107
  H    -21.405538   24.118422   44.029513
  H    -21.318261   22.206018   45.961170
  H    -21.098104   23.868791   46.522637
  H    -23.075712   23.560259   47.788535
  H    -23.567212   22.133561   46.838935
  H    -23.522744   22.216645   44.180228

 Multiplicity           Mult            ....    1
 Number of Electrons    NEL             ....  102
 Basis Dimension        Dim             ....  149

ORBITAL ENERGIES
----------------

  NO   OCC          E(Eh)            E(eV)
   0   2.0000     -19.145879      -520.9859
   1   2.0000     -19.144943      -520.9604
   2   2.0000     -19.140263      -520.8330
   3   2.0000     -19.138352      -520.7810
   4   2.0000     -10.282388      -279.7980
   5   2.0000     -10.244195      -278.7587
   6   2.0000     -10.236172      -278.5404
   7   2.0000     -10.235450      -278.5208
   8   2.0000     -10.228621      -278.3349
   9   2.0000     -10.223250      -278.1888
  10   2.0000     -10.188508      -277.2434
  11   2.0000     -10.187845      -277.2254
  12   2.0000     -10.182182      -277.0712
  13   2.0000      -1.057217       -28.7683
  14   2.0000      -1.036758       -28.2116
  15   2.0000      -1.007014       -27.4023
  16   2.0000      -0.996483       -27.1157
  17   2.0000      -0.788959       -21.4687
  18   2.0000      -0.774413       -21.0728
  19   2.0000      -0.769116       -20.9287
  20   2.0000      -0.737027       -20.0555
  21   2.0000      -0.678214       -18.4551
  22   2.0000      -0.606424       -16.5016
  23   2.0000      -0.601127       -16.3575
  24   2.0000      -0.600395       -16.3376
  25   2.0000      -0.577753       -15.7215
  26   2.0000      -0.527108       -14.3433
  27   2.0000      -0.507926       -13.8214
  28   2.0000      -0.500701       -13.6248
  29   2.0000      -0.486587       -13.2407
  30   2.0000      -0.471315       -12.8251
  31   2.0000      -0.458129       -12.4663
  32   2.0000      -0.453535       -12.3413
  33   2.0000      -0.444823       -12.1042
  34   2.0000      -0.427536       -11.6338
  35   2.0000      -0.408880       -11.1262
  36   2.0000      -0.406076       -11.0499
  37   2.0000      -0.389637       -10.6026
  38   2.0000      -0.381757       -10.3881
  39   2.0000      -0.365394        -9.9429
  40   2.0000      -0.360297        -9.8042
  41   2.0000      -0.355244        -9.6667
  42   2.0000      -0.352850        -9.6015
  43   2.0000      -0.330573        -8.9954
  44   2.0000      -0.318907        -8.6779
  45   2.0000      -0.309273        -8.4158
  46   2.0000      -0.304790        -8.2938
  47   2.0000      -0.273001        -7.4287
  48   2.0000      -0.266790        -7.2597
  49   2.0000      -0.260162        -7.0794
  50   2.0000      -0.235925        -6.4198
  51   0.0000       0.067113         1.8262
  52   0.0000       0.076196         2.0734
  53   0.0000       0.092570         2.5190
  54   0.0000       0.100062         2.7228
  55   0.0000       0.105172         2.8619

MULLIKEN ATOMIC CHARGES
-----------------------
   0 C :    0.287884
   1 C :   -0.259408
   2 C :   -0.297815
   3 C :    0.000137
   4 O :   -0.516775
   5 H :    0.138221
   6 H :    0.142836
   7 H :    0.143781
   8 H :    0.142366
   9 H :    0.164897
  10 H :    0.156929
  11 H :    0.142978
  12 C :   -0.019990
  13 H :    0.172430
  14 H :    0.114100
  15 O :   -0.503038
  16 C :    0.076186
  17 C :    0.068711
  18 C :   -0.315124
  19 C :   -0.025053
  20 O :   -0.523147
  21 H :    0.153651
  22 O :   -0.603758
  23 H :    0.143601
  24 H :    0.156718
  25 H :    0.186893
  26 H :    0.166936
  27 H :    0.138041
  28 H :    0.366810
Sum of atomic charges:   -0.0000000

LOEWDIN ATOMIC CHARGES
----------------------
   0 C :    0.169481
   1 C :   -0.225162
   2 C :   -0.215880
   3 C :   -0.023044
   4 O :   -0.312662
   5 H :    0.096180
   6 H :    0.112013
   7 H :    0.115486
   8 H :    0.114745
   9 H :    0.120912
  10 H :    0.110873
  11 H :    0.103025
  12 C :   -0.042103
  13 H :    0.127595
  14 H :    0.087867
  15 O :   -0.326985
  16 C :    0.002129
  17 C :    0.031784
  18 C :   -0.247954
  19 C :   -0.033799
  20 O :   -0.328474
  21 H :    0.115821
  22 O :   -0.412732
  23 H :    0.110018
  24 H :    0.123282
  25 H :    0.131174
  26 H :    0.115098
  27 H :    0.096856
  28 H :    0.284457

  Mayer bond orders larger than 0.100000
B(  0-C ,  1-C ) :   0.9340 B(  0-C ,  4-O ) :   0.9191 B(  0-C ,  5-H ) :   0.9036
B(  0-C , 15-O ) :   0.8381 B(  1-C ,  2-C ) :   0.9543 B(  1-C ,  6-H ) :   0.9349
B(  1-C ,  7-H ) :   0.9378 B(  2-C ,  3-C ) :   0.9552 B(  2-C ,  8-H ) :   0.9450
B(  2-C ,  9-H ) :   0.9430 B(  3-C ,  4-O ) :   0.8282 B(  3-C , 10-H ) :   0.9346
B(  3-C , 11-H ) :   0.9397 B( 12-C , 13-H ) :   0.9323 B( 12-C , 14-H ) :   0.9093
B( 12-C , 15-O ) :   0.8858 B( 12-C , 16-C ) :   0.8811 B( 16-C , 17-C ) :   0.9053
B( 16-C , 20-O ) :   0.8667 B( 16-C , 21-H ) :   0.9112 B( 17-C , 18-C ) :   0.9161
B( 17-C , 22-O ) :   0.8834 B( 17-C , 23-H ) :   0.9318 B( 18-C , 19-C ) :   0.9390
B( 18-C , 24-H ) :   0.9377 B( 18-C , 25-H ) :   0.9091 B( 19-C , 20-O ) :   0.8384
B( 19-C , 26-H ) :   0.9311 B( 19-C , 27-H ) :   0.9373 B( 22-O , 28-H ) :   0.7929

FINAL SINGLE POINT ENERGY      -652.853363978856

DIPOLE MOMENT
-------------
                                X             Y             Z
Electronic contribution:     -3.59502      -3.51205      -0.76132
Nuclear contribution   :      4.25004       4.30913       0.67436
                        -----------------------------------------
Total Dipole Moment    :      0.65501       0.79708      -0.08696
                        -----------------------------------------
Magnitude (a.u.)       :      1.03535
Magnitude (Debye)      :      2.63165

Rotational constants in cm-1:     0.055046     0.014584     0.014069
Rotational constants in MHz :  1650.235615   437.225253   421.789892

                             ****ORCA TERMINATED NORMALLY****
TOTAL RUN TIME: 0 days 0 hours 28 minutes 1 seconds 865 msec
