                         Program Version 4.2.1 -  RELEASE  -
|  1> # Test redundant internal optimization
|  2> #
|  3> ! RKS B3LYP  Opt TightSCF SmallPrint
|  4>
|  5> %basis
|  6>         Basis "6-31G"
|  7> end
|  8>
|  9> %geom
| 10> Constraints
| 11> { D 4  0  19  14  180.0   C } # D for Dihedral angle
| 12> { D 0  19  14  12  150.0   C } # D for Dihedral angle
| 13> { D 0  4  3  2   C } # D for Dihedral angle
| 14> { D 4  3  2  1   C } # D for Dihedral angle
| 15> { D 3  2  1  0   C } # D for Dihedral angle
| 16> { D 2  1  0  4   C } # D for Dihedral angle
| 17> { D 1  0  4  3   C } # D for Dihedral angle
| 18> { D 14  15  16  17   C } # D for Dihedral angle
| 19> { D 15  16  17  12   C } # D for Dihedral angle
| 20> { D 16  17  12  14   C } # D for Dihedral angle
| 21> { D 17  12  14  15   C } # D for Dihedral angle
| 22> { D 12  14  15  16   C } # D for Dihedral angle
| 23> end
| 24> end
| 25>
| 26>
| 27> #%pal
| 28> #nprocs 8
| 29> #end
| 30>
| 31> * xyz 0 1
| 32> C  -21.048   26.222   46.251
| 33> C  -20.361   27.558   45.944
| 34> C  -20.329   28.222   47.341
| 35> C  -20.110   27.022   48.296
| 36> O  -20.473   25.807   47.535
| 37> H  -20.833   25.428   45.533
| 38> H  -19.344   27.382   45.576
| 39> H  -20.898   28.157   45.201
| 40> H  -19.543   28.978   47.434
| 41> H  -21.289   28.710   47.548
| 42> H  -20.733   27.082   49.195
| 43> H  -19.064   26.913   48.597
| 44> C  -24.553   26.238   45.112
| 45> H  -24.970   26.280   44.093
| 46> C  -23.122   26.788   45.152
| 47> C  -23.373   28.314   45.150
| 48> C  -24.671   28.459   45.982
| 49> O  -25.305   27.122   46.010
| 50> H  -24.659   25.224   45.500
| 51> O  -22.472   26.381   46.366
| 52> H  -22.511   26.457   44.305
| 53> H  -22.539   28.882   45.575
| 54> H  -23.531   28.669   44.124
| 55> H  -25.372   29.179   45.547
| 56> H  -24.473   28.742   47.021
| 57> *
| 58>
| 59>                          ****END OF INPUT****
 Total Charge           Charge          ....    0
 Multiplicity           Mult            ....    1
 Number of Electrons    NEL             ....   86
FINAL SINGLE POINT ENERGY      -538.421818673603
FINAL SINGLE POINT ENERGY      -538.426602429962
FINAL SINGLE POINT ENERGY      -538.427055829612
FINAL SINGLE POINT ENERGY      -538.427153725340
FINAL SINGLE POINT ENERGY      -538.427166473408
FINAL SINGLE POINT ENERGY      -538.427171513880
                    ***********************HURRAY********************

CARTESIAN COORDINATES (ANGSTROEM)
---------------------------------
  C    -20.992008   26.247577   46.208601
  C    -20.228874   27.547471   45.959160
  C    -20.275390   28.223453   47.353662
  C    -20.183969   27.019743   48.314916
  O    -20.545709   25.829886   47.503372
  H    -20.762839   25.442130   45.501641
  H    -19.196304   27.295644   45.689142
  H    -20.643582   28.164559   45.159199
  H    -19.460362   28.938583   47.499543
  H    -21.225424   28.750736   47.484638
  H    -20.874638   27.087447   49.158706
  H    -19.169491   26.848569   48.686439
  C    -24.556795   26.228291   45.159896
  H    -25.033118   26.236340   44.167942
  C    -23.152361   26.832097   45.095240
  C    -23.462068   28.342927   45.095066
  C    -24.703785   28.450560   46.012590
  O    -25.278934   27.091484   46.096496
  H    -24.556982   25.218775   45.570924
  O    -22.441104   26.406779   46.296849
  H    -22.604339   26.513649   44.197147
  H    -22.628016   28.947672   45.454667
  H    -23.699380   28.662716   44.073089
  H    -25.459061   29.139644   45.617907
  H    -24.441467   28.749268   47.031168

 Multiplicity           Mult            ....    1
 Number of Electrons    NEL             ....   86
 Basis Dimension        Dim             ....  127

ORBITAL ENERGIES
----------------

  NO   OCC          E(Eh)            E(eV)
   0   2.0000     -19.141159      -520.8574
   1   2.0000     -19.138541      -520.7862
   2   2.0000     -19.126768      -520.4658
   3   2.0000     -10.281577      -279.7759
   4   2.0000     -10.243135      -278.7299
   5   2.0000     -10.226370      -278.2737
   6   2.0000     -10.221239      -278.1340
   7   2.0000     -10.220515      -278.1143
   8   2.0000     -10.191493      -277.3246
   9   2.0000     -10.190886      -277.3081
  10   2.0000     -10.189315      -277.2654
  11   2.0000      -1.054326       -28.6897
  12   2.0000      -1.014428       -27.6040
  13   2.0000      -0.988885       -26.9089
  14   2.0000      -0.789890       -21.4940
  15   2.0000      -0.783532       -21.3210
  16   2.0000      -0.743226       -20.2242
  17   2.0000      -0.723763       -19.6946
  18   2.0000      -0.612957       -16.6794
  19   2.0000      -0.601727       -16.3738
  20   2.0000      -0.598103       -16.2752
  21   2.0000      -0.575794       -15.6682
  22   2.0000      -0.518376       -14.1057
  23   2.0000      -0.507767       -13.8170
  24   2.0000      -0.491091       -13.3633
  25   2.0000      -0.482824       -13.1383
  26   2.0000      -0.453312       -12.3352
  27   2.0000      -0.445341       -12.1183
  28   2.0000      -0.427323       -11.6281
  29   2.0000      -0.416517       -11.3340
  30   2.0000      -0.413011       -11.2386
  31   2.0000      -0.388353       -10.5676
  32   2.0000      -0.375542       -10.2190
  33   2.0000      -0.365940        -9.9577
  34   2.0000      -0.361916        -9.8482
  35   2.0000      -0.360245        -9.8028
  36   2.0000      -0.353341        -9.6149
  37   2.0000      -0.315479        -8.5846
  38   2.0000      -0.304010        -8.2725
  39   2.0000      -0.296390        -8.0652
  40   2.0000      -0.259191        -7.0529
  41   2.0000      -0.256757        -6.9867
  42   2.0000      -0.230891        -6.2829
  43   0.0000       0.069810         1.8996
  44   0.0000       0.084485         2.2989
  45   0.0000       0.094943         2.5835
  46   0.0000       0.109139         2.9698
  47   0.0000       0.116163         3.1610

MULLIKEN ATOMIC CHARGES
-----------------------
   0 C :    0.308578
   1 C :   -0.285204
   2 C :   -0.302825
   3 C :    0.000057
   4 O :   -0.499928
   5 H :    0.140647
   6 H :    0.149345
   7 H :    0.140515
   8 H :    0.143810
   9 H :    0.157966
  10 H :    0.158080
  11 H :    0.142536
  12 C :    0.009954
  13 H :    0.121619
  14 C :    0.057298
  15 C :   -0.295366
  16 C :    0.001926
  17 O :   -0.516572
  18 H :    0.171052
  19 O :   -0.501847
  20 H :    0.120837
  21 H :    0.151467
  22 H :    0.138882
  23 H :    0.135716
  24 H :    0.151458
Sum of atomic charges:   -0.0000000

LOEWDIN ATOMIC CHARGES
----------------------
   0 C :    0.182892
   1 C :   -0.234922
   2 C :   -0.217618
   3 C :   -0.024054
   4 O :   -0.300276
   5 H :    0.095501
   6 H :    0.117210
   7 H :    0.111767
   8 H :    0.115100
   9 H :    0.114041
  10 H :    0.111441
  11 H :    0.102812
  12 C :   -0.033288
  13 H :    0.089696
  14 C :    0.035080
  15 C :   -0.236617
  16 C :   -0.028352
  17 O :   -0.326520
  18 H :    0.125135
  19 O :   -0.327628
  20 H :    0.093992
  21 H :    0.117962
  22 H :    0.111775
  23 H :    0.098309
  24 H :    0.106563

  Mayer bond orders larger than 0.100000
B(  0-C ,  1-C ) :   0.9237 B(  0-C ,  4-O ) :   0.9395 B(  0-C ,  5-H ) :   0.9202
B(  0-C , 19-O ) :   0.8431 B(  1-C ,  2-C ) :   0.9519 B(  1-C ,  6-H ) :   0.9326
B(  1-C ,  7-H ) :   0.9293 B(  2-C ,  3-C ) :   0.9541 B(  2-C ,  8-H ) :   0.9448
B(  2-C ,  9-H ) :   0.9409 B(  3-C ,  4-O ) :   0.8353 B(  3-C , 10-H ) :   0.9337
B(  3-C , 11-H ) :   0.9396 B( 12-C , 13-H ) :   0.9144 B( 12-C , 14-C ) :   0.9326
B( 12-C , 17-O ) :   0.8698 B( 12-C , 18-H ) :   0.9300 B( 14-C , 15-C ) :   0.9285
B( 14-C , 19-O ) :   0.8391 B( 14-C , 20-H ) :   0.9194 B( 15-C , 16-C ) :   0.9460
B( 15-C , 21-H ) :   0.9328 B( 15-C , 22-H ) :   0.9368 B( 16-C , 17-O ) :   0.8604
B( 16-C , 23-H ) :   0.9323 B( 16-C , 24-H ) :   0.9355

FINAL SINGLE POINT ENERGY      -538.427171871432

DIPOLE MOMENT
-------------
                                X             Y             Z
Electronic contribution:     -2.04408      -4.97512       1.55340
Nuclear contribution   :      3.04337       6.13970      -2.59602
                        -----------------------------------------
Total Dipole Moment    :      0.99929       1.16458      -1.04262
                        -----------------------------------------
Magnitude (a.u.)       :      1.85523
Magnitude (Debye)      :      4.71562

Rotational constants in cm-1:     0.074517     0.022031     0.020871
Rotational constants in MHz :  2233.956204   660.474020   625.697618

                             ****ORCA TERMINATED NORMALLY****
TOTAL RUN TIME: 0 days 0 hours 7 minutes 34 seconds 522 msec
