                         Program Version 4.2.0 -  RELEASE  -
|  1> # Test redundant internal optimization
|  2> #
|  3> ! RKS B3LYP  Opt TightSCF SmallPrint
|  4>
|  5> %basis
|  6>         Basis "6-31G"
|  7> end
|  8>
|  9> %geom
| 10> Constraints
| 11> { D 4  0  15  12  210.0   C } # D for Dihedral angle
| 12> { D 0  15  12  16  255.0   C } # D for Dihedral angle
| 13> { D 0  4  3  2   C } # D for Dihedral angle
| 14> { D 4  3  2  1   C } # D for Dihedral angle
| 15> { D 3  2  1  0   C } # D for Dihedral angle
| 16> { D 2  1  0  4   C } # D for Dihedral angle
| 17> { D 1  0  4  3   C } # D for Dihedral angle
| 18> { D 16  20  19  18   C } # D for Dihedral angle
| 19> { D 20  19  18  17   C } # D for Dihedral angle
| 20> { D 19  18  17  16   C } # D for Dihedral angle
| 21> { D 18  17  16  20   C } # D for Dihedral angle
| 22> { D 17  16  20  19   C } # D for Dihedral angle
| 23> { D 15  12  16  20   C } # D for Dihedral angle
| 24> end
| 25> end
| 26>
| 27>
| 28> #%pal
| 29> #nprocs 8
| 30> #end
| 31>
| 32> * xyz 0 1
| 33> C  -21.048   26.222   46.251
| 34> C  -20.361   27.558   45.944
| 35> C  -20.329   28.222   47.341
| 36> C  -20.110   27.022   48.296
| 37> O  -20.473   25.807   47.535
| 38> H  -20.833   25.428   45.533
| 39> H  -19.344   27.382   45.576
| 40> H  -20.898   28.157   45.201
| 41> H  -19.543   28.978   47.434
| 42> H  -21.289   28.710   47.548
| 43> H  -20.733   27.082   49.195
| 44> H  -19.064   26.913   48.597
| 45> C  -23.389   26.110   45.076
| 46> H  -22.750   25.571   44.366
| 47> H  -24.264   25.485   45.294
| 48> O  -22.586   26.394   46.375
| 49> C  -23.896   27.408   44.388
| 50> C  -24.780   27.087   43.178
| 51> C  -26.126   26.737   43.856
| 52> C  -26.166   27.695   45.072
| 53> O  -24.778   28.156   45.290
| 54> H  -23.043   28.053   44.167
| 55> O  -24.930   28.345   42.278
| 56> H  -24.388   26.269   42.564
| 57> H  -26.984   26.872   43.190
| 58> H  -26.120   25.692   44.187
| 59> H  -26.527   27.202   45.982
| 60> H  -26.775   28.584   44.884
| 61> H  -25.321   29.178   42.873
| 62> *
| 63>
| 64>                          ****END OF INPUT****
 Total Charge           Charge          ....    0
 Multiplicity           Mult            ....    1
 Number of Electrons    NEL             ....  102
FINAL SINGLE POINT ENERGY      -652.830430239208
FINAL SINGLE POINT ENERGY      -652.852955159998
FINAL SINGLE POINT ENERGY      -652.856706793172
FINAL SINGLE POINT ENERGY      -652.857389514188
FINAL SINGLE POINT ENERGY      -652.857476529712
FINAL SINGLE POINT ENERGY      -652.857485446113
FINAL SINGLE POINT ENERGY      -652.857486784833
                    ***********************HURRAY********************

CARTESIAN COORDINATES (ANGSTROEM)
---------------------------------
  C    -21.068390   26.226870   46.155129
  C    -20.409563   27.578295   45.886013
  C    -20.454810   28.242119   47.284135
  C    -20.243769   27.047384   48.237316
  O    -20.547989   25.834497   47.432809
  H    -20.825610   25.434197   45.438206
  H    -19.373002   27.416828   45.564691
  H    -20.922888   28.162338   45.118713
  H    -19.692412   29.016932   47.407080
  H    -21.440008   28.690653   47.442095
  H    -20.909006   27.063939   49.103663
  H    -19.207676   26.946768   48.573994
  C    -23.312541   26.079851   45.097762
  H    -22.723603   25.518207   44.354467
  H    -24.138982   25.442326   45.430384
  O    -22.514624   26.351853   46.278133
  C    -23.855654   27.358609   44.452985
  C    -24.753336   27.097967   43.234532
  C    -26.115479   26.778495   43.906766
  C    -26.118749   27.709067   45.145608
  O    -24.710450   28.114494   45.371636
  H    -23.026173   28.021030   44.188588
  O    -24.831037   28.276770   42.386922
  H    -24.397090   26.300132   42.581091
  H    -26.940087   26.978946   43.218007
  H    -26.157946   25.723530   44.199016
  H    -26.494684   27.214619   46.046147
  H    -26.696643   28.624711   44.984042
  H    -24.965801   29.067572   42.951071

 Multiplicity           Mult            ....    1
 Number of Electrons    NEL             ....  102
 Basis Dimension        Dim             ....  149

ORBITAL ENERGIES
----------------

  NO   OCC          E(Eh)            E(eV)
   0   2.0000     -19.143467      -520.9202
   1   2.0000     -19.143087      -520.9099
   2   2.0000     -19.137659      -520.7622
   3   2.0000     -19.137154      -520.7484
   4   2.0000     -10.278501      -279.6922
   5   2.0000     -10.246914      -278.8327
   6   2.0000     -10.237070      -278.5648
   7   2.0000     -10.235885      -278.5326
   8   2.0000     -10.232781      -278.4481
   9   2.0000     -10.221028      -278.1283
  10   2.0000     -10.193292      -277.3736
  11   2.0000     -10.183707      -277.1128
  12   2.0000     -10.181511      -277.0530
  13   2.0000      -1.051246       -28.6059
  14   2.0000      -1.039083       -28.2749
  15   2.0000      -1.009578       -27.4720
  16   2.0000      -0.991672       -26.9848
  17   2.0000      -0.788430       -21.4543
  18   2.0000      -0.781981       -21.2788
  19   2.0000      -0.768956       -20.9244
  20   2.0000      -0.731573       -19.9071
  21   2.0000      -0.676139       -18.3987
  22   2.0000      -0.608259       -16.5516
  23   2.0000      -0.598527       -16.2868
  24   2.0000      -0.595773       -16.2118
  25   2.0000      -0.582270       -15.8444
  26   2.0000      -0.525034       -14.2869
  27   2.0000      -0.514004       -13.9868
  28   2.0000      -0.497128       -13.5275
  29   2.0000      -0.490228       -13.3398
  30   2.0000      -0.473350       -12.8805
  31   2.0000      -0.456881       -12.4324
  32   2.0000      -0.453169       -12.3314
  33   2.0000      -0.445662       -12.1271
  34   2.0000      -0.427360       -11.6290
  35   2.0000      -0.412078       -11.2132
  36   2.0000      -0.399386       -10.8678
  37   2.0000      -0.395895       -10.7728
  38   2.0000      -0.375684       -10.2229
  39   2.0000      -0.370828       -10.0907
  40   2.0000      -0.363601        -9.8941
  41   2.0000      -0.354247        -9.6396
  42   2.0000      -0.349854        -9.5200
  43   2.0000      -0.334241        -9.0952
  44   2.0000      -0.313043        -8.5183
  45   2.0000      -0.309468        -8.4210
  46   2.0000      -0.301809        -8.2126
  47   2.0000      -0.274996        -7.4830
  48   2.0000      -0.264646        -7.2014
  49   2.0000      -0.255640        -6.9563
  50   2.0000      -0.236345        -6.4313
  51   0.0000       0.062613         1.7038
  52   0.0000       0.080996         2.2040
  53   0.0000       0.083849         2.2817
  54   0.0000       0.087163         2.3718
  55   0.0000       0.101184         2.7534

MULLIKEN ATOMIC CHARGES
-----------------------
   0 C :    0.287171
   1 C :   -0.263528
   2 C :   -0.301890
   3 C :   -0.000681
   4 O :   -0.501873
   5 H :    0.136036
   6 H :    0.141770
   7 H :    0.144412
   8 H :    0.140065
   9 H :    0.173230
  10 H :    0.155406
  11 H :    0.139593
  12 C :   -0.014196
  13 H :    0.120882
  14 H :    0.151619
  15 O :   -0.493745
  16 C :    0.063355
  17 C :    0.073998
  18 C :   -0.296813
  19 C :   -0.030292
  20 O :   -0.509234
  21 H :    0.159625
  22 O :   -0.600992
  23 H :    0.151746
  24 H :    0.163359
  25 H :    0.146830
  26 H :    0.152490
  27 H :    0.146260
  28 H :    0.365396
Sum of atomic charges:   -0.0000000

LOEWDIN ATOMIC CHARGES
----------------------
   0 C :    0.178574
   1 C :   -0.228094
   2 C :   -0.217172
   3 C :   -0.024755
   4 O :   -0.306127
   5 H :    0.094379
   6 H :    0.112063
   7 H :    0.113347
   8 H :    0.113631
   9 H :    0.124665
  10 H :    0.110094
  11 H :    0.101188
  12 C :   -0.041612
  13 H :    0.094506
  14 H :    0.110172
  15 O :   -0.321343
  16 C :    0.006696
  17 C :    0.033814
  18 C :   -0.241592
  19 C :   -0.038108
  20 O :   -0.322373
  21 H :    0.112082
  22 O :   -0.414120
  23 H :    0.114967
  24 H :    0.127044
  25 H :    0.114147
  26 H :    0.107628
  27 H :    0.102568
  28 H :    0.283732

  Mayer bond orders larger than 0.100000
B(  0-C ,  1-C ) :   0.9319 B(  0-C ,  4-O ) :   0.9395 B(  0-C ,  5-H ) :   0.9169
B(  0-C , 15-O ) :   0.8402 B(  1-C ,  2-C ) :   0.9550 B(  1-C ,  6-H ) :   0.9337
B(  1-C ,  7-H ) :   0.9324 B(  2-C ,  3-C ) :   0.9554 B(  2-C ,  8-H ) :   0.9450
B(  2-C ,  9-H ) :   0.9406 B(  3-C ,  4-O ) :   0.8342 B(  3-C , 10-H ) :   0.9345
B(  3-C , 11-H ) :   0.9398 B( 12-C , 13-H ) :   0.9107 B( 12-C , 14-H ) :   0.9326
B( 12-C , 15-O ) :   0.8642 B( 12-C , 16-C ) :   0.8819 B( 16-C , 17-C ) :   0.8936
B( 16-C , 20-O ) :   0.8692 B( 16-C , 21-H ) :   0.9208 B( 17-C , 18-C ) :   0.9120
B( 17-C , 22-O ) :   0.8942 B( 17-C , 23-H ) :   0.9330 B( 18-C , 19-C ) :   0.9397
B( 18-C , 24-H ) :   0.9371 B( 18-C , 25-H ) :   0.9337 B( 19-C , 20-O ) :   0.8478
B( 19-C , 26-H ) :   0.9339 B( 19-C , 27-H ) :   0.9373 B( 22-O , 28-H ) :   0.7938

FINAL SINGLE POINT ENERGY      -652.857486665239

DIPOLE MOMENT
-------------
                                X             Y             Z
Electronic contribution:     -0.37328      -1.10724       0.04069
Nuclear contribution   :      0.19858       1.29927      -0.43175
                        -----------------------------------------
Total Dipole Moment    :     -0.17470       0.19203      -0.39107
                        -----------------------------------------
Magnitude (a.u.)       :      0.46939
Magnitude (Debye)      :      1.19310

Rotational constants in cm-1:     0.061169     0.011975     0.011771
Rotational constants in MHz :  1833.786152   358.995072   352.882499

                             ****ORCA TERMINATED NORMALLY****
TOTAL RUN TIME: 0 days 0 hours 22 minutes 43 seconds 517 msec
