                         Program Version 4.2.0 -  RELEASE  -
|  1> # Test redundant internal optimization
|  2> #
|  3> ! RKS B3LYP  Opt TightSCF SmallPrint
|  4>
|  5> %basis
|  6>         Basis "6-31G"
|  7> end
|  8>
|  9> %geom
| 10> Constraints
| 11> { D 4  0  15  12  345.0   C } # D for Dihedral angle
| 12> { D 0  15  12  16  135.0   C } # D for Dihedral angle
| 13> { D 0  4  3  2   C } # D for Dihedral angle
| 14> { D 4  3  2  1   C } # D for Dihedral angle
| 15> { D 3  2  1  0   C } # D for Dihedral angle
| 16> { D 2  1  0  4   C } # D for Dihedral angle
| 17> { D 1  0  4  3   C } # D for Dihedral angle
| 18> { D 16  20  19  18   C } # D for Dihedral angle
| 19> { D 20  19  18  17   C } # D for Dihedral angle
| 20> { D 19  18  17  16   C } # D for Dihedral angle
| 21> { D 18  17  16  20   C } # D for Dihedral angle
| 22> { D 17  16  20  19   C } # D for Dihedral angle
| 23> { D 15  12  16  20   C } # D for Dihedral angle
| 24> end
| 25> end
| 26>
| 27>
| 28> #%pal
| 29> #nprocs 8
| 30> #end
| 31>
| 32> * xyz 0 1
| 33> C  -21.048   26.222   46.251
| 34> C  -20.361   27.558   45.944
| 35> C  -20.329   28.222   47.341
| 36> C  -20.110   27.022   48.296
| 37> O  -20.473   25.807   47.535
| 38> H  -20.833   25.428   45.533
| 39> H  -19.344   27.382   45.576
| 40> H  -20.898   28.157   45.201
| 41> H  -19.543   28.978   47.434
| 42> H  -21.289   28.710   47.548
| 43> H  -20.733   27.082   49.195
| 44> H  -19.064   26.913   48.597
| 45> C  -23.221   25.764   47.645
| 46> H  -23.739   24.837   47.369
| 47> H  -22.444   25.517   48.380
| 48> O  -22.586   26.394   46.375
| 49> C  -24.243   26.708   48.337
| 50> C  -25.455   26.971   47.436
| 51> C  -26.281   25.678   47.636
| 52> C  -26.022   25.321   49.121
| 53> O  -24.810   26.065   49.527
| 54> H  -23.727   27.608   48.675
| 55> O  -26.241   28.209   47.950
| 56> H  -25.184   27.146   46.389
| 57> H  -27.345   25.816   47.419
| 58> H  -25.905   24.887   46.976
| 59> H  -25.852   24.250   49.271
| 60> H  -26.834   25.646   49.776
| 61> H  -26.524   28.057   48.998
| 62> *
| 63>
| 64>                          ****END OF INPUT****
 Total Charge           Charge          ....    0
 Multiplicity           Mult            ....    1
 Number of Electrons    NEL             ....  102
FINAL SINGLE POINT ENERGY      -652.837925543121
FINAL SINGLE POINT ENERGY      -652.860411535553
FINAL SINGLE POINT ENERGY      -652.864046748924
FINAL SINGLE POINT ENERGY      -652.864591161712
FINAL SINGLE POINT ENERGY      -652.864678896350
FINAL SINGLE POINT ENERGY      -652.864693609359
                    ***********************HURRAY********************

CARTESIAN COORDINATES (ANGSTROEM)
---------------------------------
  C    -21.120385   26.204614   46.340190
  C    -20.605299   27.604268   46.006110
  C    -20.466955   28.233140   47.411278
  C    -20.024160   27.044378   48.290608
  O    -20.372618   25.818331   47.511555
  H    -20.916010   25.439620   45.586265
  H    -19.631435   27.521092   45.510099
  H    -21.292631   28.149884   45.356063
  H    -19.744720   29.054910   47.434053
  H    -21.435392   28.622827   47.738844
  H    -20.534163   27.002633   49.256615
  H    -18.943093   27.008342   48.450701
  C    -23.157000   25.636897   47.719443
  H    -23.642093   24.697677   47.421824
  H    -22.391080   25.402212   48.461355
  O    -22.565356   26.261385   46.541658
  C    -24.172902   26.616361   48.304783
  C    -25.353797   26.956776   47.385068
  C    -26.274669   25.728363   47.590758
  C    -26.060726   25.369211   49.082947
  O    -24.797359   26.030215   49.497206
  H    -23.661141   27.528503   48.626861
  O    -25.997967   28.193102   47.804607
  H    -25.052714   27.116460   46.351289
  H    -27.312758   25.978923   47.357688
  H    -25.964779   24.907909   46.934848
  H    -25.970249   24.291931   49.253107
  H    -26.854621   25.758944   49.727859
  H    -26.121928   28.176091   48.777317

 Multiplicity           Mult            ....    1
 Number of Electrons    NEL             ....  102
 Basis Dimension        Dim             ....  149

ORBITAL ENERGIES
----------------

  NO   OCC          E(Eh)            E(eV)
   0   2.0000     -19.152659      -521.1703
   1   2.0000     -19.142452      -520.8926
   2   2.0000     -19.140844      -520.8489
   3   2.0000     -19.133408      -520.6465
   4   2.0000     -10.281406      -279.7713
   5   2.0000     -10.233265      -278.4613
   6   2.0000     -10.232649      -278.4445
   7   2.0000     -10.229952      -278.3711
   8   2.0000     -10.229554      -278.3603
   9   2.0000     -10.223905      -278.2066
  10   2.0000     -10.190844      -277.3070
  11   2.0000     -10.187224      -277.2085
  12   2.0000     -10.185327      -277.1568
  13   2.0000      -1.056563       -28.7505
  14   2.0000      -1.033385       -28.1198
  15   2.0000      -1.001981       -27.2653
  16   2.0000      -0.993616       -27.0377
  17   2.0000      -0.793006       -21.5788
  18   2.0000      -0.777563       -21.1586
  19   2.0000      -0.766722       -20.8636
  20   2.0000      -0.732551       -19.9337
  21   2.0000      -0.671297       -18.2669
  22   2.0000      -0.604502       -16.4493
  23   2.0000      -0.601576       -16.3697
  24   2.0000      -0.592928       -16.1344
  25   2.0000      -0.575299       -15.6547
  26   2.0000      -0.523891       -14.2558
  27   2.0000      -0.510135       -13.8815
  28   2.0000      -0.499773       -13.5995
  29   2.0000      -0.491995       -13.3879
  30   2.0000      -0.473506       -12.8848
  31   2.0000      -0.455594       -12.3973
  32   2.0000      -0.451023       -12.2730
  33   2.0000      -0.434606       -11.8262
  34   2.0000      -0.421500       -11.4696
  35   2.0000      -0.415109       -11.2957
  36   2.0000      -0.399630       -10.8745
  37   2.0000      -0.389544       -10.6000
  38   2.0000      -0.375792       -10.2258
  39   2.0000      -0.364809        -9.9269
  40   2.0000      -0.361705        -9.8425
  41   2.0000      -0.355816        -9.6822
  42   2.0000      -0.351385        -9.5617
  43   2.0000      -0.341158        -9.2834
  44   2.0000      -0.323954        -8.8152
  45   2.0000      -0.309170        -8.4130
  46   2.0000      -0.297692        -8.1006
  47   2.0000      -0.272295        -7.4095
  48   2.0000      -0.266879        -7.2621
  49   2.0000      -0.256872        -6.9899
  50   2.0000      -0.240421        -6.5422
  51   0.0000       0.066410         1.8071
  52   0.0000       0.070428         1.9164
  53   0.0000       0.093559         2.5459
  54   0.0000       0.096964         2.6385
  55   0.0000       0.101772         2.7694

MULLIKEN ATOMIC CHARGES
-----------------------
   0 C :    0.306200
   1 C :   -0.259650
   2 C :   -0.308146
   3 C :   -0.021506
   4 O :   -0.511790
   5 H :    0.153013
   6 H :    0.145671
   7 H :    0.163005
   8 H :    0.148019
   9 H :    0.161449
  10 H :    0.151083
  11 H :    0.153481
  12 C :   -0.016873
  13 H :    0.130351
  14 H :    0.176811
  15 O :   -0.546873
  16 C :    0.060096
  17 C :    0.090751
  18 C :   -0.303345
  19 C :   -0.033598
  20 O :   -0.528371
  21 H :    0.154056
  22 O :   -0.604627
  23 H :    0.175785
  24 H :    0.160100
  25 H :    0.150991
  26 H :    0.147926
  27 H :    0.145854
  28 H :    0.360134
Sum of atomic charges:    0.0000000

LOEWDIN ATOMIC CHARGES
----------------------
   0 C :    0.183930
   1 C :   -0.218186
   2 C :   -0.218796
   3 C :   -0.032219
   4 O :   -0.318439
   5 H :    0.101402
   6 H :    0.114328
   7 H :    0.127025
   8 H :    0.117757
   9 H :    0.116227
  10 H :    0.105922
  11 H :    0.108394
  12 C :   -0.042292
  13 H :    0.094990
  14 H :    0.121114
  15 O :   -0.347361
  16 C :    0.013138
  17 C :    0.037617
  18 C :   -0.242414
  19 C :   -0.039464
  20 O :   -0.332569
  21 H :    0.110210
  22 O :   -0.416472
  23 H :    0.127693
  24 H :    0.125650
  25 H :    0.116325
  26 H :    0.104475
  27 H :    0.101912
  28 H :    0.280104

  Mayer bond orders larger than 0.100000
B(  0-C ,  1-C ) :   0.9377 B(  0-C ,  4-O ) :   0.9132 B(  0-C ,  5-H ) :   0.9268
B(  0-C , 15-O ) :   0.8349 B(  1-C ,  2-C ) :   0.9530 B(  1-C ,  6-H ) :   0.9361
B(  1-C ,  7-H ) :   0.9352 B(  2-C ,  3-C ) :   0.9544 B(  2-C ,  8-H ) :   0.9441
B(  2-C ,  9-H ) :   0.9410 B(  3-C ,  4-O ) :   0.8258 B(  3-C , 10-H ) :   0.9332
B(  3-C , 11-H ) :   0.9404 B( 12-C , 13-H ) :   0.9289 B( 12-C , 14-H ) :   0.9043
B( 12-C , 15-O ) :   0.8199 B( 12-C , 16-C ) :   0.8976 B( 16-C , 17-C ) :   0.9113
B( 16-C , 20-O ) :   0.8407 B( 16-C , 21-H ) :   0.9254 B( 17-C , 18-C ) :   0.9137
B( 17-C , 22-O ) :   0.8876 B( 17-C , 23-H ) :   0.9246 B( 18-C , 19-C ) :   0.9419
B( 18-C , 24-H ) :   0.9380 B( 18-C , 25-H ) :   0.9336 B( 19-C , 20-O ) :   0.8453
B( 19-C , 26-H ) :   0.9351 B( 19-C , 27-H ) :   0.9374 B( 22-O , 28-H ) :   0.7975

FINAL SINGLE POINT ENERGY      -652.864694897359

DIPOLE MOMENT
-------------
                                X             Y             Z
Electronic contribution:     -0.86362      -1.06801       0.38947
Nuclear contribution   :      1.16203       1.03571      -0.39782
                        -----------------------------------------
Total Dipole Moment    :      0.29841      -0.03230      -0.00835
                        -----------------------------------------
Magnitude (a.u.)       :      0.30027
Magnitude (Debye)      :      0.76321

Rotational constants in cm-1:     0.053480     0.013687     0.013089
Rotational constants in MHz :  1603.298831   410.333111   392.384132

                             ****ORCA TERMINATED NORMALLY****
TOTAL RUN TIME: 0 days 0 hours 21 minutes 13 seconds 221 msec
