                         Program Version 4.2.0 -  RELEASE  -
|  1> # Test redundant internal optimization
|  2> #
|  3> ! RKS B3LYP  Opt TightSCF SmallPrint
|  4>
|  5> %basis
|  6>         Basis "6-31G"
|  7> end
|  8>
|  9> %geom
| 10> Constraints
| 11> { D 4  0  15  12  45.0   C } # D for Dihedral angle
| 12> { D 0  15  12  16  165.0   C } # D for Dihedral angle
| 13> { D 0  4  3  2   C } # D for Dihedral angle
| 14> { D 4  3  2  1   C } # D for Dihedral angle
| 15> { D 3  2  1  0   C } # D for Dihedral angle
| 16> { D 2  1  0  4   C } # D for Dihedral angle
| 17> { D 1  0  4  3   C } # D for Dihedral angle
| 18> { D 16  20  19  18   C } # D for Dihedral angle
| 19> { D 20  19  18  17   C } # D for Dihedral angle
| 20> { D 19  18  17  16   C } # D for Dihedral angle
| 21> { D 18  17  16  20   C } # D for Dihedral angle
| 22> { D 17  16  20  19   C } # D for Dihedral angle
| 23> { D 15  12  16  20   C } # D for Dihedral angle
| 24> end
| 25> end
| 26>
| 27>
| 28> #%pal
| 29> #nprocs 8
| 30> #end
| 31>
| 32> * xyz 0 1
| 33> C  -21.048   26.222   46.251
| 34> C  -20.361   27.558   45.944
| 35> C  -20.329   28.222   47.341
| 36> C  -20.110   27.022   48.296
| 37> O  -20.473   25.807   47.535
| 38> H  -20.833   25.428   45.533
| 39> H  -19.344   27.382   45.576
| 40> H  -20.898   28.157   45.201
| 41> H  -19.543   28.978   47.434
| 42> H  -21.289   28.710   47.548
| 43> H  -20.733   27.082   49.195
| 44> H  -19.064   26.913   48.597
| 45> C  -23.065   27.161   47.638
| 46> H  -22.970   26.510   48.515
| 47> H  -22.446   28.053   47.803
| 48> O  -22.586   26.394   46.375
| 49> C  -24.544   27.626   47.533
| 50> C  -24.774   28.472   46.274
| 51> C  -24.878   27.382   45.180
| 52> C  -25.584   26.214   45.913
| 53> O  -25.433   26.473   47.361
| 54> H  -24.832   28.116   48.465
| 55> H  -25.716   29.024   46.360
| 56> O  -23.632   29.489   46.005
| 57> H  -25.433   27.718   44.298
| 58> H  -23.876   27.082   44.851
| 59> H  -25.142   25.240   45.674
| 60> H  -26.657   26.177   45.703
| 61> H  -22.679   28.957   45.915
| 62> *
| 63>
| 64>                          ****END OF INPUT****
 Total Charge           Charge          ....    0
 Multiplicity           Mult            ....    1
 Number of Electrons    NEL             ....  102
FINAL SINGLE POINT ENERGY      -652.811214201293
FINAL SINGLE POINT ENERGY      -652.839228876030
FINAL SINGLE POINT ENERGY      -652.853114772567
FINAL SINGLE POINT ENERGY      -652.855884958319
FINAL SINGLE POINT ENERGY      -652.856421425944
FINAL SINGLE POINT ENERGY      -652.856519532871
FINAL SINGLE POINT ENERGY      -652.856529573015
                    ***********************HURRAY********************

CARTESIAN COORDINATES (ANGSTROEM)
---------------------------------
  C    -21.141173   26.294326   46.458770
  C    -20.333943   27.514778   45.992384
  C    -20.037751   28.243126   47.337374
  C    -19.854390   27.063066   48.323277
  O    -20.470563   25.880245   47.668302
  H    -21.067710   25.454123   45.765766
  H    -19.405971   27.162429   45.530202
  H    -20.870633   28.131359   45.265741
  H    -19.136974   28.862594   47.280132
  H    -20.865312   28.897227   47.623124
  H    -20.340772   27.225875   49.289341
  H    -18.801680   26.818157   48.488936
  C    -23.148931   27.151099   47.737443
  H    -23.092012   26.493715   48.611274
  H    -22.617844   28.082521   47.959038
  O    -22.574423   26.453619   46.588497
  C    -24.607616   27.511043   47.471889
  C    -24.862910   28.438526   46.270368
  C    -24.942868   27.421596   45.090870
  C    -25.616127   26.196744   45.747525
  O    -25.463479   26.363219   47.214742
  H    -24.980037   27.964815   48.399112
  H    -25.810689   28.964034   46.405357
  O    -23.872917   29.484801   46.099404
  H    -25.514492   27.815354   44.245318
  H    -23.930239   27.175826   44.763290
  H    -25.149220   25.253385   45.453232
  H    -26.690415   26.149557   45.544268
  H    -23.070909   29.101842   45.689025

 Multiplicity           Mult            ....    1
 Number of Electrons    NEL             ....  102
 Basis Dimension        Dim             ....  149

ORBITAL ENERGIES
----------------

  NO   OCC          E(Eh)            E(eV)
   0   2.0000     -19.151276      -521.1327
   1   2.0000     -19.149936      -521.0962
   2   2.0000     -19.143816      -520.9297
   3   2.0000     -19.131164      -520.5854
   4   2.0000     -10.286369      -279.9063
   5   2.0000     -10.237353      -278.5725
   6   2.0000     -10.236821      -278.5581
   7   2.0000     -10.229757      -278.3658
   8   2.0000     -10.229353      -278.3548
   9   2.0000     -10.219442      -278.0852
  10   2.0000     -10.200367      -277.5661
  11   2.0000     -10.200106      -277.5590
  12   2.0000     -10.179926      -277.0099
  13   2.0000      -1.059592       -28.8330
  14   2.0000      -1.028320       -27.9820
  15   2.0000      -1.010620       -27.5004
  16   2.0000      -0.998638       -27.1743
  17   2.0000      -0.797033       -21.6884
  18   2.0000      -0.776863       -21.1395
  19   2.0000      -0.767126       -20.8746
  20   2.0000      -0.737400       -20.0657
  21   2.0000      -0.680449       -18.5160
  22   2.0000      -0.612398       -16.6642
  23   2.0000      -0.604047       -16.4370
  24   2.0000      -0.601949       -16.3799
  25   2.0000      -0.563260       -15.3271
  26   2.0000      -0.524887       -14.2829
  27   2.0000      -0.518235       -14.1019
  28   2.0000      -0.504326       -13.7234
  29   2.0000      -0.493336       -13.4244
  30   2.0000      -0.471893       -12.8409
  31   2.0000      -0.454153       -12.3581
  32   2.0000      -0.446589       -12.1523
  33   2.0000      -0.430927       -11.7261
  34   2.0000      -0.425822       -11.5872
  35   2.0000      -0.423968       -11.5368
  36   2.0000      -0.402473       -10.9519
  37   2.0000      -0.400953       -10.9105
  38   2.0000      -0.385040       -10.4775
  39   2.0000      -0.373449       -10.1621
  40   2.0000      -0.370476       -10.0812
  41   2.0000      -0.359947        -9.7946
  42   2.0000      -0.347724        -9.4620
  43   2.0000      -0.328810        -8.9474
  44   2.0000      -0.323270        -8.7966
  45   2.0000      -0.312227        -8.4961
  46   2.0000      -0.309595        -8.4245
  47   2.0000      -0.269981        -7.3465
  48   2.0000      -0.263583        -7.1725
  49   2.0000      -0.257248        -7.0001
  50   2.0000      -0.237132        -6.4527
  51   0.0000       0.040334         1.0975
  52   0.0000       0.075676         2.0593
  53   0.0000       0.091220         2.4822
  54   0.0000       0.098393         2.6774
  55   0.0000       0.099207         2.6996

MULLIKEN ATOMIC CHARGES
-----------------------
   0 C :    0.304832
   1 C :   -0.273376
   2 C :   -0.324090
   3 C :   -0.012297
   4 O :   -0.505418
   5 H :    0.166340
   6 H :    0.158735
   7 H :    0.136153
   8 H :    0.150503
   9 H :    0.162858
  10 H :    0.148657
  11 H :    0.152796
  12 C :   -0.018856
  13 H :    0.165922
  14 H :    0.130230
  15 O :   -0.535499
  16 C :    0.094379
  17 C :    0.084176
  18 C :   -0.314487
  19 C :    0.003631
  20 O :   -0.519945
  21 H :    0.145598
  22 H :    0.161948
  23 O :   -0.613172
  24 H :    0.142161
  25 H :    0.157782
  26 H :    0.149208
  27 H :    0.139830
  28 H :    0.361400
Sum of atomic charges:   -0.0000000

LOEWDIN ATOMIC CHARGES
----------------------
   0 C :    0.176411
   1 C :   -0.228630
   2 C :   -0.225592
   3 C :   -0.032777
   4 O :   -0.316567
   5 H :    0.112744
   6 H :    0.123007
   7 H :    0.109787
   8 H :    0.118225
   9 H :    0.113183
  10 H :    0.104962
  11 H :    0.107929
  12 C :   -0.048530
  13 H :    0.115735
  14 H :    0.096782
  15 O :   -0.330207
  16 C :    0.021383
  17 C :    0.037316
  18 C :   -0.242860
  19 C :   -0.022442
  20 O :   -0.320834
  21 H :    0.112888
  22 H :    0.115969
  23 O :   -0.413552
  24 H :    0.113892
  25 H :    0.118295
  26 H :    0.107438
  27 H :    0.100306
  28 H :    0.275740

  Mayer bond orders larger than 0.100000
B(  0-C ,  1-C ) :   0.9137 B(  0-C ,  4-O ) :   0.9080 B(  0-C ,  5-H ) :   0.9360
B(  0-C , 15-O ) :   0.8785 B(  1-C ,  2-C ) :   0.9534 B(  1-C ,  6-H ) :   0.9334
B(  1-C ,  7-H ) :   0.9354 B(  2-C ,  3-C ) :   0.9468 B(  2-C ,  8-H ) :   0.9439
B(  2-C ,  9-H ) :   0.9350 B(  3-C ,  4-O ) :   0.8386 B(  3-C , 10-H ) :   0.9330
B(  3-C , 11-H ) :   0.9389 B( 12-C , 13-H ) :   0.9210 B( 12-C , 14-H ) :   0.8896
B( 12-C , 15-O ) :   0.8226 B( 12-C , 16-C ) :   0.9188 B( 16-C , 17-C ) :   0.8828
B( 16-C , 20-O ) :   0.8822 B( 16-C , 21-H ) :   0.9295 B( 17-C , 18-C ) :   0.9372
B( 17-C , 22-H ) :   0.9357 B( 17-C , 23-O ) :   0.8932 B( 18-C , 19-C ) :   0.9468
B( 18-C , 24-H ) :   0.9409 B( 18-C , 25-H ) :   0.9271 B( 19-C , 20-O ) :   0.8389
B( 19-C , 26-H ) :   0.9324 B( 19-C , 27-H ) :   0.9379 B( 23-O , 28-H ) :   0.7891

FINAL SINGLE POINT ENERGY      -652.856528315456

DIPOLE MOMENT
-------------
                                X             Y             Z
Electronic contribution:     -2.85234      -2.85505       1.33740
Nuclear contribution   :      3.82926       3.52041      -1.86150
                        -----------------------------------------
Total Dipole Moment    :      0.97693       0.66536      -0.52411
                        -----------------------------------------
Magnitude (a.u.)       :      1.29297
Magnitude (Debye)      :      3.28647

Rotational constants in cm-1:     0.049305     0.016400     0.015021
Rotational constants in MHz :  1478.132971   491.657402   450.306822

                             ****ORCA TERMINATED NORMALLY****
TOTAL RUN TIME: 0 days 0 hours 36 minutes 28 seconds 552 msec
