                         Program Version 4.2.1 -  RELEASE  -
|  1> # Test redundant internal optimization
|  2> #
|  3> ! RKS B3LYP  Opt TightSCF SmallPrint
|  4>
|  5> %basis
|  6>         Basis "6-31G"
|  7> end
|  8>
|  9> %geom
| 10> Constraints
| 11> { D 4  0  19  14  315.0   C } # D for Dihedral angle
| 12> { D 0  19  14  12  135.0   C } # D for Dihedral angle
| 13> { D 0  4  3  2   C } # D for Dihedral angle
| 14> { D 4  3  2  1   C } # D for Dihedral angle
| 15> { D 3  2  1  0   C } # D for Dihedral angle
| 16> { D 2  1  0  4   C } # D for Dihedral angle
| 17> { D 1  0  4  3   C } # D for Dihedral angle
| 18> { D 14  15  16  17   C } # D for Dihedral angle
| 19> { D 15  16  17  12   C } # D for Dihedral angle
| 20> { D 16  17  12  14   C } # D for Dihedral angle
| 21> { D 17  12  14  15   C } # D for Dihedral angle
| 22> { D 12  14  15  16   C } # D for Dihedral angle
| 23> end
| 24> end
| 25>
| 26>
| 27> #%pal
| 28> #nprocs 8
| 29> #end
| 30>
| 31> * xyz 0 1
| 32> C  -21.048   26.222   46.251
| 33> C  -20.361   27.558   45.944
| 34> C  -20.329   28.222   47.341
| 35> C  -20.110   27.022   48.296
| 36> O  -20.473   25.807   47.535
| 37> H  -20.833   25.428   45.533
| 38> H  -19.344   27.382   45.576
| 39> H  -20.898   28.157   45.201
| 40> H  -19.543   28.978   47.434
| 41> H  -21.289   28.710   47.548
| 42> H  -20.733   27.082   49.195
| 43> H  -19.064   26.913   48.597
| 44> C  -24.142   25.896   48.069
| 45> H  -24.445   25.144   48.815
| 46> C  -23.132   25.318   47.072
| 47> C  -24.052   24.519   46.120
| 48> C  -25.338   25.382   46.067
| 49> O  -25.288   26.283   47.239
| 50> H  -23.803   26.796   48.586
| 51> O  -22.472   26.381   46.366
| 52> H  -22.368   24.693   47.547
| 53> H  -23.611   24.366   45.130
| 54> H  -24.268   23.531   46.545
| 55> H  -26.251   24.779   46.116
| 56> H  -25.379   26.015   45.175
| 57> *
| 58>
| 59>                          ****END OF INPUT****
 Total Charge           Charge          ....    0
 Multiplicity           Mult            ....    1
 Number of Electrons    NEL             ....   86
FINAL SINGLE POINT ENERGY      -538.434711663554
FINAL SINGLE POINT ENERGY      -538.436976988228
FINAL SINGLE POINT ENERGY      -538.437280821848
FINAL SINGLE POINT ENERGY      -538.437316166137
FINAL SINGLE POINT ENERGY      -538.437326029655
                    ***********************HURRAY********************

CARTESIAN COORDINATES (ANGSTROEM)
---------------------------------
  C    -20.997844   26.185437   46.258955
  C    -20.419105   27.567080   45.954136
  C    -20.390914   28.211727   47.357124
  C    -20.058891   27.025078   48.288393
  O    -20.365078   25.796356   47.502976
  H    -20.750239   25.394126   45.543778
  H    -19.407971   27.452751   45.547448
  H    -21.033729   28.118644   45.239897
  H    -19.653901   29.016912   47.435316
  H    -21.377793   28.621668   47.589721
  H    -20.654529   27.016294   49.204974
  H    -18.997897   26.968944   48.547976
  C    -24.142578   25.915050   48.056437
  H    -24.487924   25.186034   48.805049
  C    -23.140344   25.270879   47.099513
  C    -24.072438   24.507219   46.139206
  C    -25.309866   25.429793   46.035068
  O    -25.243185   26.346235   47.193888
  H    -23.747059   26.801000   48.555117
  O    -22.432501   26.329882   46.374872
  H    -22.415830   24.633896   47.613315
  H    -23.594850   24.327635   45.172380
  H    -24.336593   23.537497   46.577492
  H    -26.253358   24.873788   46.069984
  H    -25.289579   26.050073   45.134985

 Multiplicity           Mult            ....    1
 Number of Electrons    NEL             ....   86
 Basis Dimension        Dim             ....  127

ORBITAL ENERGIES
----------------

  NO   OCC          E(Eh)            E(eV)
   0   2.0000     -19.146399      -521.0000
   1   2.0000     -19.139349      -520.8082
   2   2.0000     -19.123544      -520.3781
   3   2.0000     -10.279024      -279.7065
   4   2.0000     -10.232261      -278.4340
   5   2.0000     -10.229033      -278.3462
   6   2.0000     -10.217414      -278.0300
   7   2.0000     -10.216023      -277.9921
   8   2.0000     -10.186209      -277.1808
   9   2.0000     -10.185303      -277.1562
  10   2.0000     -10.181510      -277.0530
  11   2.0000      -1.055247       -28.7147
  12   2.0000      -1.010745       -27.5038
  13   2.0000      -0.987488       -26.8709
  14   2.0000      -0.792687       -21.5701
  15   2.0000      -0.774339       -21.0708
  16   2.0000      -0.738259       -20.0891
  17   2.0000      -0.719284       -19.5727
  18   2.0000      -0.609455       -16.5841
  19   2.0000      -0.597545       -16.2600
  20   2.0000      -0.594743       -16.1838
  21   2.0000      -0.568375       -15.4663
  22   2.0000      -0.520835       -14.1726
  23   2.0000      -0.501135       -13.6366
  24   2.0000      -0.484708       -13.1896
  25   2.0000      -0.477641       -12.9973
  26   2.0000      -0.453399       -12.3376
  27   2.0000      -0.434201       -11.8152
  28   2.0000      -0.427447       -11.6314
  29   2.0000      -0.414849       -11.2886
  30   2.0000      -0.407039       -11.0761
  31   2.0000      -0.379998       -10.3403
  32   2.0000      -0.369312       -10.0495
  33   2.0000      -0.365371        -9.9422
  34   2.0000      -0.358571        -9.7572
  35   2.0000      -0.353382        -9.6160
  36   2.0000      -0.342925        -9.3315
  37   2.0000      -0.333200        -9.0668
  38   2.0000      -0.299987        -8.1631
  39   2.0000      -0.293574        -7.9886
  40   2.0000      -0.264871        -7.2075
  41   2.0000      -0.257099        -6.9960
  42   2.0000      -0.228822        -6.2266
  43   0.0000       0.079423         2.1612
  44   0.0000       0.096174         2.6170
  45   0.0000       0.103360         2.8126
  46   0.0000       0.109923         2.9912
  47   0.0000       0.111569         3.0359

MULLIKEN ATOMIC CHARGES
-----------------------
   0 C :    0.288937
   1 C :   -0.260755
   2 C :   -0.300220
   3 C :   -0.010857
   4 O :   -0.515142
   5 H :    0.143769
   6 H :    0.143755
   7 H :    0.163317
   8 H :    0.143016
   9 H :    0.165473
  10 H :    0.145284
  11 H :    0.146777
  12 C :    0.008396
  13 H :    0.123044
  14 C :    0.051692
  15 C :   -0.289051
  16 C :    0.008829
  17 O :   -0.522304
  18 H :    0.153792
  19 O :   -0.521243
  20 H :    0.162695
  21 H :    0.149140
  22 H :    0.140453
  23 H :    0.131111
  24 H :    0.150089
Sum of atomic charges:   -0.0000000

LOEWDIN ATOMIC CHARGES
----------------------
   0 C :    0.174811
   1 C :   -0.213980
   2 C :   -0.216563
   3 C :   -0.029805
   4 O :   -0.330036
   5 H :    0.094886
   6 H :    0.113540
   7 H :    0.127612
   8 H :    0.114812
   9 H :    0.120311
  10 H :    0.103731
  11 H :    0.104902
  12 C :   -0.036402
  13 H :    0.090579
  14 C :    0.031230
  15 C :   -0.231029
  16 C :   -0.027027
  17 O :   -0.331625
  18 H :    0.115418
  19 O :   -0.326994
  20 H :    0.116347
  21 H :    0.120518
  22 H :    0.111631
  23 H :    0.096431
  24 H :    0.106702

  Mayer bond orders larger than 0.100000
B(  0-C ,  1-C ) :   0.9482 B(  0-C ,  4-O ) :   0.8954 B(  0-C ,  5-H ) :   0.9210
B(  0-C , 19-O ) :   0.8666 B(  1-C ,  2-C ) :   0.9545 B(  1-C ,  6-H ) :   0.9390
B(  1-C ,  7-H ) :   0.9348 B(  2-C ,  3-C ) :   0.9561 B(  2-C ,  8-H ) :   0.9447
B(  2-C ,  9-H ) :   0.9427 B(  3-C ,  4-O ) :   0.8315 B(  3-C , 10-H ) :   0.9355
B(  3-C , 11-H ) :   0.9405 B( 12-C , 13-H ) :   0.9142 B( 12-C , 14-C ) :   0.9314
B( 12-C , 17-O ) :   0.8722 B( 12-C , 18-H ) :   0.9336 B( 14-C , 15-C ) :   0.9431
B( 14-C , 19-O ) :   0.8148 B( 14-C , 20-H ) :   0.9092 B( 15-C , 16-C ) :   0.9448
B( 15-C , 21-H ) :   0.9417 B( 15-C , 22-H ) :   0.9391 B( 16-C , 17-O ) :   0.8578
B( 16-C , 23-H ) :   0.9342 B( 16-C , 24-H ) :   0.9371

FINAL SINGLE POINT ENERGY      -538.437327108889

DIPOLE MOMENT
-------------
                                X             Y             Z
Electronic contribution:     -1.03470      -0.90341       0.02492
Nuclear contribution   :      1.80539       0.67993      -0.10513
                        -----------------------------------------
Total Dipole Moment    :      0.77070      -0.22348      -0.08021
                        -----------------------------------------
Magnitude (a.u.)       :      0.80644
Magnitude (Debye)      :      2.04981

Rotational constants in cm-1:     0.079974     0.020995     0.020510
Rotational constants in MHz :  2397.549433   629.421562   614.872671

                             ****ORCA TERMINATED NORMALLY****
TOTAL RUN TIME: 0 days 0 hours 5 minutes 46 seconds 472 msec
