                         Program Version 4.2.0 -  RELEASE  -
|  1> # Test redundant internal optimization
|  2> #
|  3> ! RKS B3LYP  Opt TightSCF SmallPrint
|  4>
|  5> %basis
|  6>         Basis "6-31G"
|  7> end
|  8>
|  9> %geom
| 10> Constraints
| 11> { D 4  0  15  12  330.0   C } # D for Dihedral angle
| 12> { D 0  15  12  16  210.0   C } # D for Dihedral angle
| 13> { D 0  4  3  2   C } # D for Dihedral angle
| 14> { D 4  3  2  1   C } # D for Dihedral angle
| 15> { D 3  2  1  0   C } # D for Dihedral angle
| 16> { D 2  1  0  4   C } # D for Dihedral angle
| 17> { D 1  0  4  3   C } # D for Dihedral angle
| 18> { D 16  20  19  18   C } # D for Dihedral angle
| 19> { D 20  19  18  17   C } # D for Dihedral angle
| 20> { D 19  18  17  16   C } # D for Dihedral angle
| 21> { D 18  17  16  20   C } # D for Dihedral angle
| 22> { D 17  16  20  19   C } # D for Dihedral angle
| 23> { D 15  12  16  20   C } # D for Dihedral angle
| 24> end
| 25> end
| 26>
| 27>
| 28> #%pal
| 29> #nprocs 8
| 30> #end
| 31>
| 32> * xyz 0 1
| 33> C  -21.048   26.222   46.251
| 34> C  -20.361   27.558   45.944
| 35> C  -20.329   28.222   47.341
| 36> C  -20.110   27.022   48.296
| 37> O  -20.473   25.807   47.535
| 38> H  -20.833   25.428   45.533
| 39> H  -19.344   27.382   45.576
| 40> H  -20.898   28.157   45.201
| 41> H  -19.543   28.978   47.434
| 42> H  -21.289   28.710   47.548
| 43> H  -20.733   27.082   49.195
| 44> H  -19.064   26.913   48.597
| 45> C  -23.271   25.476   47.424
| 46> H  -22.699   24.544   47.517
| 47> H  -23.292   25.965   48.407
| 48> O  -22.586   26.394   46.375
| 49> C  -24.734   25.115   47.043
| 50> C  -25.574   26.376   46.807
| 51> C  -25.138   26.779   45.378
| 52> C  -24.911   25.415   44.681
| 53> O  -24.770   24.411   45.758
| 54> H  -25.141   24.435   47.793
| 55> O  -27.085   26.022   46.839
| 56> H  -25.388   27.163   47.545
| 57> H  -25.886   27.391   44.863
| 58> H  -24.205   27.353   45.417
| 59> H  -24.008   25.405   44.060
| 60> H  -25.765   25.111   44.068
| 61> H  -27.296   25.235   46.106
| 62> *
| 63>
| 64>                          ****END OF INPUT****
 Total Charge           Charge          ....    0
 Multiplicity           Mult            ....    1
 Number of Electrons    NEL             ....  102
FINAL SINGLE POINT ENERGY      -652.839003405793
FINAL SINGLE POINT ENERGY      -652.861347352147
FINAL SINGLE POINT ENERGY      -652.865370709609
FINAL SINGLE POINT ENERGY      -652.866361643389
FINAL SINGLE POINT ENERGY      -652.866464898617
FINAL SINGLE POINT ENERGY      -652.866479337535
                    ***********************HURRAY********************

CARTESIAN COORDINATES (ANGSTROEM)
---------------------------------
  C    -21.081235   26.153091   46.318969
  C    -20.458328   27.505621   45.976484
  C    -20.395582   28.183067   47.362814
  C    -20.096418   27.008549   48.319867
  O    -20.452885   25.773617   47.563934
  H    -20.874268   25.337237   45.620465
  H    -19.454710   27.344978   45.566842
  H    -21.053613   28.063632   45.250474
  H    -19.631332   28.964566   47.415078
  H    -21.364776   28.634857   47.595477
  H    -20.684489   27.038774   49.240832
  H    -19.035919   26.921402   48.571913
  C    -23.205308   25.505187   47.426470
  H    -22.673074   24.557786   47.556843
  H    -23.216887   26.025208   48.393802
  O    -22.521598   26.323350   46.428937
  C    -24.633902   25.206268   46.979033
  C    -25.559312   26.410447   46.747958
  C    -25.191026   26.817908   45.296638
  C    -24.900037   25.458003   44.616472
  O    -24.664641   24.482997   45.707330
  H    -25.076122   24.540572   47.730960
  O    -26.955293   26.016351   46.875155
  H    -25.422427   27.214892   47.471391
  H    -26.014900   27.362408   44.826444
  H    -24.294533   27.439517   45.310242
  H    -24.011285   25.494293   43.980822
  H    -25.746030   25.085388   44.028776
  H    -27.104070   25.201038   46.351577

 Multiplicity           Mult            ....    1
 Number of Electrons    NEL             ....  102
 Basis Dimension        Dim             ....  149

ORBITAL ENERGIES
----------------

  NO   OCC          E(Eh)            E(eV)
   0   2.0000     -19.150902      -521.1225
   1   2.0000     -19.145447      -520.9741
   2   2.0000     -19.134784      -520.6839
   3   2.0000     -19.131768      -520.6019
   4   2.0000     -10.282632      -279.8047
   5   2.0000     -10.233363      -278.4640
   6   2.0000     -10.233188      -278.4592
   7   2.0000     -10.230059      -278.3740
   8   2.0000     -10.227713      -278.3102
   9   2.0000     -10.220381      -278.1107
  10   2.0000     -10.192384      -277.3489
  11   2.0000     -10.190508      -277.2978
  12   2.0000     -10.173368      -276.8314
  13   2.0000      -1.059007       -28.8170
  14   2.0000      -1.029533       -28.0150
  15   2.0000      -1.001363       -27.2485
  16   2.0000      -0.992442       -27.0057
  17   2.0000      -0.795244       -21.6397
  18   2.0000      -0.774281       -21.0693
  19   2.0000      -0.761775       -20.7290
  20   2.0000      -0.734163       -19.9776
  21   2.0000      -0.670813       -18.2537
  22   2.0000      -0.606348       -16.4996
  23   2.0000      -0.597626       -16.2622
  24   2.0000      -0.593819       -16.1586
  25   2.0000      -0.570179       -15.5154
  26   2.0000      -0.525031       -14.2868
  27   2.0000      -0.509217       -13.8565
  28   2.0000      -0.496238       -13.5033
  29   2.0000      -0.488520       -13.2933
  30   2.0000      -0.468792       -12.7565
  31   2.0000      -0.460689       -12.5360
  32   2.0000      -0.446757       -12.1569
  33   2.0000      -0.436433       -11.8759
  34   2.0000      -0.419151       -11.4057
  35   2.0000      -0.408619       -11.1191
  36   2.0000      -0.402642       -10.9564
  37   2.0000      -0.384770       -10.4701
  38   2.0000      -0.376629       -10.2486
  39   2.0000      -0.366252        -9.9662
  40   2.0000      -0.363010        -9.8780
  41   2.0000      -0.357567        -9.7299
  42   2.0000      -0.349491        -9.5101
  43   2.0000      -0.339317        -9.2333
  44   2.0000      -0.321391        -8.7455
  45   2.0000      -0.305867        -8.3231
  46   2.0000      -0.297426        -8.0934
  47   2.0000      -0.267715        -7.2849
  48   2.0000      -0.265990        -7.2379
  49   2.0000      -0.256494        -6.9796
  50   2.0000      -0.239129        -6.5070
  51   0.0000       0.066811         1.8180
  52   0.0000       0.080595         2.1931
  53   0.0000       0.102348         2.7850
  54   0.0000       0.102842         2.7985
  55   0.0000       0.105467         2.8699

MULLIKEN ATOMIC CHARGES
-----------------------
   0 C :    0.299416
   1 C :   -0.260596
   2 C :   -0.301636
   3 C :   -0.012786
   4 O :   -0.511617
   5 H :    0.157688
   6 H :    0.147072
   7 H :    0.157509
   8 H :    0.146529
   9 H :    0.156996
  10 H :    0.146722
  11 H :    0.149925
  12 C :    0.012957
  13 H :    0.165582
  14 H :    0.125615
  15 O :   -0.545514
  16 C :    0.060362
  17 C :    0.078676
  18 C :   -0.289588
  19 C :   -0.017762
  20 O :   -0.527034
  21 H :    0.155311
  22 O :   -0.605072
  23 H :    0.148796
  24 H :    0.146215
  25 H :    0.173384
  26 H :    0.146069
  27 H :    0.134519
  28 H :    0.362261
Sum of atomic charges:    0.0000000

LOEWDIN ATOMIC CHARGES
----------------------
   0 C :    0.179570
   1 C :   -0.215635
   2 C :   -0.217308
   3 C :   -0.030316
   4 O :   -0.322334
   5 H :    0.103307
   6 H :    0.115293
   7 H :    0.123993
   8 H :    0.116610
   9 H :    0.116430
  10 H :    0.104268
  11 H :    0.106689
  12 C :   -0.034803
  13 H :    0.117163
  14 H :    0.095719
  15 O :   -0.342648
  16 C :    0.012406
  17 C :    0.038565
  18 C :   -0.243012
  19 C :   -0.032894
  20 O :   -0.330828
  21 H :    0.115406
  22 O :   -0.418532
  23 H :    0.114678
  24 H :    0.117144
  25 H :    0.129114
  26 H :    0.105195
  27 H :    0.095247
  28 H :    0.281511

  Mayer bond orders larger than 0.100000
B(  0-C ,  1-C ) :   0.9461 B(  0-C ,  4-O ) :   0.9048 B(  0-C ,  5-H ) :   0.9224
B(  0-C , 15-O ) :   0.8370 B(  1-C ,  2-C ) :   0.9525 B(  1-C ,  6-H ) :   0.9371
B(  1-C ,  7-H ) :   0.9362 B(  2-C ,  3-C ) :   0.9556 B(  2-C ,  8-H ) :   0.9446
B(  2-C ,  9-H ) :   0.9453 B(  3-C ,  4-O ) :   0.8315 B(  3-C , 10-H ) :   0.9344
B(  3-C , 11-H ) :   0.9402 B( 12-C , 13-H ) :   0.9159 B( 12-C , 14-H ) :   0.9165
B( 12-C , 15-O ) :   0.8271 B( 12-C , 16-C ) :   0.9047 B( 16-C , 17-C ) :   0.9077
B( 16-C , 20-O ) :   0.8701 B( 16-C , 21-H ) :   0.9220 B( 17-C , 18-C ) :   0.9254
B( 17-C , 22-O ) :   0.8896 B( 17-C , 23-H ) :   0.9361 B( 18-C , 19-C ) :   0.9456
B( 18-C , 24-H ) :   0.9375 B( 18-C , 25-H ) :   0.9188 B( 19-C , 20-O ) :   0.8416
B( 19-C , 26-H ) :   0.9350 B( 19-C , 27-H ) :   0.9371 B( 22-O , 28-H ) :   0.7964

FINAL SINGLE POINT ENERGY      -652.866479477578

DIPOLE MOMENT
-------------
                                X             Y             Z
Electronic contribution:     -2.94685      -4.73430       0.35150
Nuclear contribution   :      3.87063       5.60355      -0.47035
                        -----------------------------------------
Total Dipole Moment    :      0.92379       0.86925      -0.11885
                        -----------------------------------------
Magnitude (a.u.)       :      1.27401
Magnitude (Debye)      :      3.23828

Rotational constants in cm-1:     0.057774     0.013489     0.013294
Rotational constants in MHz :  1732.018462   404.390996   398.546892

                             ****ORCA TERMINATED NORMALLY****
TOTAL RUN TIME: 0 days 0 hours 30 minutes 58 seconds 996 msec
