                         Program Version 4.2.0 -  RELEASE  -
|  1> # Test redundant internal optimization
|  2> #
|  3> ! RKS B3LYP  Opt TightSCF SmallPrint
|  4>
|  5> %basis
|  6>         Basis "6-31G"
|  7> end
|  8>
|  9> %geom
| 10> Constraints
| 11> { D 4  0  15  12  240.0   C } # D for Dihedral angle
| 12> { D 0  15  12  16  15.0   C } # D for Dihedral angle
| 13> { D 0  4  3  2   C } # D for Dihedral angle
| 14> { D 4  3  2  1   C } # D for Dihedral angle
| 15> { D 3  2  1  0   C } # D for Dihedral angle
| 16> { D 2  1  0  4   C } # D for Dihedral angle
| 17> { D 1  0  4  3   C } # D for Dihedral angle
| 18> { D 16  20  19  18   C } # D for Dihedral angle
| 19> { D 20  19  18  17   C } # D for Dihedral angle
| 20> { D 19  18  17  16   C } # D for Dihedral angle
| 21> { D 18  17  16  20   C } # D for Dihedral angle
| 22> { D 17  16  20  19   C } # D for Dihedral angle
| 23> { D 15  12  16  20   C } # D for Dihedral angle
| 24> end
| 25> end
| 26>
| 27>
| 28> #%pal
| 29> #nprocs 8
| 30> #end
| 31>
| 32> * xyz 0 1
| 33> C  -21.048   26.222   46.251
| 34> C  -20.361   27.558   45.944
| 35> C  -20.329   28.222   47.341
| 36> C  -20.110   27.022   48.296
| 37> O  -20.473   25.807   47.535
| 38> H  -20.833   25.428   45.533
| 39> H  -19.344   27.382   45.576
| 40> H  -20.898   28.157   45.201
| 41> H  -19.543   28.978   47.434
| 42> H  -21.289   28.710   47.548
| 43> H  -20.733   27.082   49.195
| 44> H  -19.064   26.913   48.597
| 45> C  -23.430   25.483   45.442
| 46> H  -24.262   25.052   46.013
| 47> H  -23.848   26.066   44.612
| 48> O  -22.586   26.394   46.375
| 49> C  -22.602   24.318   44.832
| 50> C  -23.434   23.510   43.829
| 51> C  -23.377   24.413   42.574
| 52> C  -21.954   25.022   42.644
| 53> O  -21.488   24.843   44.035
| 54> H  -22.168   23.726   45.640
| 55> O  -22.753   22.142   43.552
| 56> H  -24.458   23.323   44.172
| 57> H  -23.550   23.860   41.645
| 58> H  -24.137   25.200   42.642
| 59> H  -21.942   26.089   42.396
| 60> H  -21.244   24.499   41.996
| 61> H  -21.726   22.305   43.207
| 62> *
| 63>
| 64>                          ****END OF INPUT****
 Total Charge           Charge          ....    0
 Multiplicity           Mult            ....    1
 Number of Electrons    NEL             ....  102
FINAL SINGLE POINT ENERGY      -652.823383232784
FINAL SINGLE POINT ENERGY      -652.844677720928
FINAL SINGLE POINT ENERGY      -652.854962169334
FINAL SINGLE POINT ENERGY      -652.856951708619
FINAL SINGLE POINT ENERGY      -652.857344441756
FINAL SINGLE POINT ENERGY      -652.857390356237
FINAL SINGLE POINT ENERGY      -652.857395981018
                    ***********************HURRAY********************

CARTESIAN COORDINATES (ANGSTROEM)
---------------------------------
  C    -20.819825   26.248045   46.234893
  C    -20.299404   27.674260   46.052119
  C    -20.486985   28.268082   47.470047
  C    -20.193742   27.059896   48.388162
  O    -20.320609   25.857431   47.531627
  H    -20.464969   25.523490   45.507761
  H    -19.237725   27.642040   45.779388
  H    -20.847180   28.217674   45.279156
  H    -19.820799   29.113332   47.666583
  H    -21.521359   28.602121   47.592756
  H    -20.896452   26.975714   49.221748
  H    -19.170912   27.063039   48.778304
  C    -23.138280   25.494824   45.430298
  H    -23.934402   25.120579   46.085937
  H    -23.598946   26.167270   44.692577
  O    -22.274699   26.303863   46.274142
  C    -22.516478   24.297841   44.707931
  C    -23.511922   23.541141   43.812319
  C    -23.479849   24.393679   42.514768
  C    -22.002984   24.859398   42.436994
  O    -21.431196   24.681531   43.795757
  H    -22.069293   23.619095   45.441847
  O    -23.071847   22.177671   43.577297
  H    -24.509543   23.450649   44.243095
  H    -23.784011   23.794451   41.652986
  H    -24.162270   25.245872   42.602428
  H    -21.904329   25.909010   42.144957
  H    -21.403889   24.249095   41.754816
  H    -22.110102   22.174907   43.386307

 Multiplicity           Mult            ....    1
 Number of Electrons    NEL             ....  102
 Basis Dimension        Dim             ....  149

ORBITAL ENERGIES
----------------

  NO   OCC          E(Eh)            E(eV)
   0   2.0000     -19.155595      -521.2503
   1   2.0000     -19.145662      -520.9799
   2   2.0000     -19.130591      -520.5698
   3   2.0000     -19.125611      -520.4343
   4   2.0000     -10.262650      -279.2609
   5   2.0000     -10.251612      -278.9605
   6   2.0000     -10.242902      -278.7235
   7   2.0000     -10.240794      -278.6662
   8   2.0000     -10.234920      -278.5063
   9   2.0000     -10.213822      -277.9322
  10   2.0000     -10.198016      -277.5021
  11   2.0000     -10.174903      -276.8732
  12   2.0000     -10.173257      -276.8284
  13   2.0000      -1.048533       -28.5320
  14   2.0000      -1.036075       -28.1930
  15   2.0000      -1.015119       -27.6228
  16   2.0000      -0.981229       -26.7006
  17   2.0000      -0.793333       -21.5877
  18   2.0000      -0.777494       -21.1567
  19   2.0000      -0.768092       -20.9008
  20   2.0000      -0.727306       -19.7910
  21   2.0000      -0.674880       -18.3644
  22   2.0000      -0.613540       -16.6953
  23   2.0000      -0.606403       -16.5011
  24   2.0000      -0.586830       -15.9685
  25   2.0000      -0.566889       -15.4258
  26   2.0000      -0.534100       -14.5336
  27   2.0000      -0.509583       -13.8665
  28   2.0000      -0.493833       -13.4379
  29   2.0000      -0.483583       -13.1590
  30   2.0000      -0.475362       -12.9353
  31   2.0000      -0.456294       -12.4164
  32   2.0000      -0.449209       -12.2236
  33   2.0000      -0.437143       -11.8953
  34   2.0000      -0.426442       -11.6041
  35   2.0000      -0.409777       -11.1506
  36   2.0000      -0.402440       -10.9509
  37   2.0000      -0.393308       -10.7024
  38   2.0000      -0.382167       -10.3993
  39   2.0000      -0.368740       -10.0339
  40   2.0000      -0.362965        -9.8768
  41   2.0000      -0.345779        -9.4091
  42   2.0000      -0.341451        -9.2914
  43   2.0000      -0.334985        -9.1154
  44   2.0000      -0.324168        -8.8211
  45   2.0000      -0.305633        -8.3167
  46   2.0000      -0.296809        -8.0766
  47   2.0000      -0.279865        -7.6155
  48   2.0000      -0.255257        -6.9459
  49   2.0000      -0.253580        -6.9003
  50   2.0000      -0.232334        -6.3221
  51   0.0000       0.057607         1.5676
  52   0.0000       0.080752         2.1974
  53   0.0000       0.086545         2.3550
  54   0.0000       0.095517         2.5991
  55   0.0000       0.103311         2.8112

MULLIKEN ATOMIC CHARGES
-----------------------
   0 C :    0.258696
   1 C :   -0.246265
   2 C :   -0.297180
   3 C :    0.000718
   4 O :   -0.506239
   5 H :    0.195420
   6 H :    0.139211
   7 H :    0.139025
   8 H :    0.134023
   9 H :    0.159247
  10 H :    0.145862
  11 H :    0.136151
  12 C :    0.035726
  13 H :    0.146964
  14 H :    0.127393
  15 O :   -0.542278
  16 C :    0.021289
  17 C :    0.082111
  18 C :   -0.298643
  19 C :   -0.026300
  20 O :   -0.529489
  21 H :    0.180787
  22 O :   -0.597115
  23 H :    0.157603
  24 H :    0.165142
  25 H :    0.149965
  26 H :    0.149398
  27 H :    0.152751
  28 H :    0.366027
Sum of atomic charges:    0.0000000

LOEWDIN ATOMIC CHARGES
----------------------
   0 C :    0.168192
   1 C :   -0.217412
   2 C :   -0.217243
   3 C :   -0.027727
   4 O :   -0.320839
   5 H :    0.122217
   6 H :    0.110432
   7 H :    0.114982
   8 H :    0.110152
   9 H :    0.117694
  10 H :    0.104409
  11 H :    0.099097
  12 C :   -0.032075
  13 H :    0.111458
  14 H :    0.093447
  15 O :   -0.337581
  16 C :   -0.000828
  17 C :    0.041195
  18 C :   -0.240815
  19 C :   -0.036830
  20 O :   -0.334079
  21 H :    0.123245
  22 O :   -0.409972
  23 H :    0.118593
  24 H :    0.128170
  25 H :    0.115595
  26 H :    0.106350
  27 H :    0.105732
  28 H :    0.284441

  Mayer bond orders larger than 0.100000
B(  0-C ,  1-C ) :   0.9425 B(  0-C ,  4-O ) :   0.9142 B(  0-C ,  5-H ) :   0.8903
B(  0-C , 15-O ) :   0.8244 B(  1-C ,  2-C ) :   0.9569 B(  1-C ,  6-H ) :   0.9392
B(  1-C ,  7-H ) :   0.9410 B(  2-C ,  3-C ) :   0.9548 B(  2-C ,  8-H ) :   0.9464
B(  2-C ,  9-H ) :   0.9441 B(  3-C ,  4-O ) :   0.8435 B(  3-C , 10-H ) :   0.9355
B(  3-C , 11-H ) :   0.9403 B( 12-C , 13-H ) :   0.9196 B( 12-C , 14-H ) :   0.9228
B( 12-C , 15-O ) :   0.8601 B( 12-C , 16-C ) :   0.9004 B( 16-C , 17-C ) :   0.8972
B( 16-C , 20-O ) :   0.8291 B( 16-C , 21-H ) :   0.9179 B( 17-C , 18-C ) :   0.9102
B( 17-C , 22-O ) :   0.8983 B( 17-C , 23-H ) :   0.9334 B( 18-C , 19-C ) :   0.9415
B( 18-C , 24-H ) :   0.9371 B( 18-C , 25-H ) :   0.9323 B( 19-C , 20-O ) :   0.8353
B( 19-C , 26-H ) :   0.9354 B( 19-C , 27-H ) :   0.9376 B( 22-O , 28-H ) :   0.7938

FINAL SINGLE POINT ENERGY      -652.857396682595

DIPOLE MOMENT
-------------
                                X             Y             Z
Electronic contribution:      0.18184      -4.91746       0.89384
Nuclear contribution   :     -0.43431       5.69945      -1.89187
                        -----------------------------------------
Total Dipole Moment    :     -0.25247       0.78199      -0.99803
                        -----------------------------------------
Magnitude (a.u.)       :      1.29280
Magnitude (Debye)      :      3.28603

Rotational constants in cm-1:     0.065640     0.012497     0.011956
Rotational constants in MHz :  1967.840372   374.651768   358.417983

                             ****ORCA TERMINATED NORMALLY****
TOTAL RUN TIME: 0 days 2 hours 30 minutes 53 seconds 996 msec
