                         Program Version 4.2.0 -  RELEASE  -
|  1> # Test redundant internal optimization
|  2> #
|  3> ! RKS B3LYP  Opt TightSCF SmallPrint
|  4>
|  5> %basis
|  6>         Basis "6-31G"
|  7> end
|  8>
|  9> %geom
| 10> Constraints
| 11> { D 4  0  15  12  150.0   C } # D for Dihedral angle
| 12> { D 0  15  12  16  240.0   C } # D for Dihedral angle
| 13> { D 0  4  3  2   C } # D for Dihedral angle
| 14> { D 4  3  2  1   C } # D for Dihedral angle
| 15> { D 3  2  1  0   C } # D for Dihedral angle
| 16> { D 2  1  0  4   C } # D for Dihedral angle
| 17> { D 1  0  4  3   C } # D for Dihedral angle
| 18> { D 16  20  19  18   C } # D for Dihedral angle
| 19> { D 20  19  18  17   C } # D for Dihedral angle
| 20> { D 19  18  17  16   C } # D for Dihedral angle
| 21> { D 18  17  16  20   C } # D for Dihedral angle
| 22> { D 17  16  20  19   C } # D for Dihedral angle
| 23> { D 15  12  16  20   C } # D for Dihedral angle
| 24> end
| 25> end
| 26>
| 27>
| 28> #%pal
| 29> #nprocs 8
| 30> #end
| 31>
| 32> * xyz 0 1
| 33> C  -21.048   26.222   46.251
| 34> C  -20.361   27.558   45.944
| 35> C  -20.329   28.222   47.341
| 36> C  -20.110   27.022   48.296
| 37> O  -20.473   25.807   47.535
| 38> H  -20.833   25.428   45.533
| 39> H  -19.344   27.382   45.576
| 40> H  -20.898   28.157   45.201
| 41> H  -19.543   28.978   47.434
| 42> H  -21.289   28.710   47.548
| 43> H  -20.733   27.082   49.195
| 44> H  -19.064   26.913   48.597
| 45> C  -23.210   27.459   45.431
| 46> H  -22.418   27.907   44.818
| 47> H  -23.942   26.994   44.759
| 48> O  -22.586   26.394   46.375
| 49> C  -23.933   28.596   46.204
| 50> C  -24.633   29.564   45.244
| 51> C  -25.918   28.778   44.890
| 52> C  -26.255   28.042   46.210
| 53> O  -25.020   28.049   47.023
| 54> H  -23.225   29.071   46.888
| 55> O  -24.984   30.886   45.981
| 56> H  -24.029   29.809   44.364
| 57> H  -26.734   29.427   44.554
| 58> H  -25.711   28.059   44.088
| 59> H  -26.568   27.005   46.044
| 60> H  -27.027   28.556   46.790
| 61> H  -25.590   30.664   46.866
| 62> *
| 63>
| 64>                          ****END OF INPUT****
 Total Charge           Charge          ....    0
 Multiplicity           Mult            ....    1
 Number of Electrons    NEL             ....  102
FINAL SINGLE POINT ENERGY      -652.818736622521
FINAL SINGLE POINT ENERGY      -652.842205211331
FINAL SINGLE POINT ENERGY      -652.846798530434
FINAL SINGLE POINT ENERGY      -652.849171830347
FINAL SINGLE POINT ENERGY      -652.849420874986
FINAL SINGLE POINT ENERGY      -652.849462186130
FINAL SINGLE POINT ENERGY      -652.849465902259
                    ***********************HURRAY********************

CARTESIAN COORDINATES (ANGSTROEM)
---------------------------------
  C    -21.081970   26.305874   46.211835
  C    -20.215242   27.538606   45.947917
  C    -20.261312   28.269349   47.318069
  C    -20.293610   27.094649   48.319999
  O    -20.712300   25.906583   47.538159
  H    -20.867610   25.454343   45.560371
  H    -19.197819   27.194602   45.730837
  H    -20.535104   28.166338   45.112796
  H    -19.396049   28.921994   47.468584
  H    -21.164392   28.880105   47.399089
  H    -21.005106   27.245128   49.135682
  H    -19.307678   26.865535   48.734848
  C    -23.181363   27.477479   45.339435
  H    -22.470047   27.981210   44.671673
  H    -23.882901   26.912621   44.712388
  O    -22.529530   26.519104   46.210488
  C    -23.935429   28.536327   46.148385
  C    -24.691432   29.548861   45.275806
  C    -26.000212   28.776107   44.957103
  C    -26.258082   27.978243   46.259934
  O    -24.972899   27.951271   46.998348
  H    -23.240427   29.045193   46.822330
  O    -24.953266   30.773861   46.014526
  H    -24.147888   29.864029   44.383637
  H    -26.807255   29.471268   44.713038
  H    -25.850296   28.108173   44.101312
  H    -26.581029   26.950477   46.071474
  H    -26.994193   28.462067   46.909931
  H    -25.273560   30.541604   46.912006

 Multiplicity           Mult            ....    1
 Number of Electrons    NEL             ....  102
 Basis Dimension        Dim             ....  149

ORBITAL ENERGIES
----------------

  NO   OCC          E(Eh)            E(eV)
   0   2.0000     -19.142293      -520.8883
   1   2.0000     -19.141316      -520.8617
   2   2.0000     -19.137446      -520.7564
   3   2.0000     -19.135023      -520.6905
   4   2.0000     -10.280028      -279.7338
   5   2.0000     -10.246140      -278.8117
   6   2.0000     -10.235877      -278.5324
   7   2.0000     -10.235751      -278.5289
   8   2.0000     -10.230849      -278.3956
   9   2.0000     -10.224255      -278.2161
  10   2.0000     -10.193548      -277.3805
  11   2.0000     -10.192407      -277.3495
  12   2.0000     -10.191338      -277.3204
  13   2.0000      -1.049741       -28.5649
  14   2.0000      -1.038165       -28.2499
  15   2.0000      -1.008518       -27.4432
  16   2.0000      -0.989364       -26.9220
  17   2.0000      -0.789187       -21.4749
  18   2.0000      -0.787144       -21.4193
  19   2.0000      -0.769901       -20.9501
  20   2.0000      -0.734140       -19.9770
  21   2.0000      -0.679474       -18.4894
  22   2.0000      -0.607458       -16.5298
  23   2.0000      -0.606306       -16.4984
  24   2.0000      -0.595720       -16.2104
  25   2.0000      -0.577263       -15.7081
  26   2.0000      -0.522853       -14.2275
  27   2.0000      -0.516151       -14.0452
  28   2.0000      -0.501276       -13.6404
  29   2.0000      -0.495854       -13.4929
  30   2.0000      -0.473003       -12.8711
  31   2.0000      -0.459725       -12.5098
  32   2.0000      -0.454283       -12.3617
  33   2.0000      -0.440465       -11.9857
  34   2.0000      -0.432335       -11.7644
  35   2.0000      -0.412973       -11.2376
  36   2.0000      -0.403241       -10.9727
  37   2.0000      -0.395925       -10.7737
  38   2.0000      -0.379468       -10.3258
  39   2.0000      -0.374610       -10.1937
  40   2.0000      -0.364562        -9.9202
  41   2.0000      -0.356814        -9.7094
  42   2.0000      -0.354491        -9.6462
  43   2.0000      -0.334657        -9.1065
  44   2.0000      -0.313037        -8.5182
  45   2.0000      -0.307950        -8.3797
  46   2.0000      -0.292138        -7.9495
  47   2.0000      -0.274178        -7.4608
  48   2.0000      -0.266462        -7.2508
  49   2.0000      -0.253047        -6.8858
  50   2.0000      -0.236100        -6.4246
  51   0.0000       0.063172         1.7190
  52   0.0000       0.073899         2.0109
  53   0.0000       0.085817         2.3352
  54   0.0000       0.088254         2.4015
  55   0.0000       0.096908         2.6370

MULLIKEN ATOMIC CHARGES
-----------------------
   0 C :    0.317113
   1 C :   -0.301710
   2 C :   -0.307229
   3 C :   -0.000078
   4 O :   -0.493469
   5 H :    0.148258
   6 H :    0.155460
   7 H :    0.142857
   8 H :    0.145362
   9 H :    0.158014
  10 H :    0.158010
  11 H :    0.142618
  12 C :   -0.001498
  13 H :    0.116078
  14 H :    0.142797
  15 O :   -0.510987
  16 C :    0.061784
  17 C :    0.075658
  18 C :   -0.295384
  19 C :   -0.031920
  20 O :   -0.505892
  21 H :    0.165940
  22 O :   -0.602078
  23 H :    0.147808
  24 H :    0.163052
  25 H :    0.142734
  26 H :    0.154683
  27 H :    0.146256
  28 H :    0.365764
Sum of atomic charges:    0.0000000

LOEWDIN ATOMIC CHARGES
----------------------
   0 C :    0.186253
   1 C :   -0.235041
   2 C :   -0.218308
   3 C :   -0.026447
   4 O :   -0.302348
   5 H :    0.099723
   6 H :    0.121528
   7 H :    0.111898
   8 H :    0.115950
   9 H :    0.111427
  10 H :    0.111365
  11 H :    0.103024
  12 C :   -0.040840
  13 H :    0.093031
  14 H :    0.103907
  15 O :   -0.326560
  16 C :    0.010741
  17 C :    0.033656
  18 C :   -0.241120
  19 C :   -0.038650
  20 O :   -0.318273
  21 H :    0.112544
  22 O :   -0.414559
  23 H :    0.113170
  24 H :    0.126868
  25 H :    0.112319
  26 H :    0.108502
  27 H :    0.102364
  28 H :    0.283876

  Mayer bond orders larger than 0.100000
B(  0-C ,  1-C ) :   0.9288 B(  0-C ,  4-O ) :   0.9339 B(  0-C ,  5-H ) :   0.9261
B(  0-C , 15-O ) :   0.8486 B(  1-C ,  2-C ) :   0.9502 B(  1-C ,  6-H ) :   0.9328
B(  1-C ,  7-H ) :   0.9265 B(  2-C ,  3-C ) :   0.9537 B(  2-C ,  8-H ) :   0.9447
B(  2-C ,  9-H ) :   0.9350 B(  3-C ,  4-O ) :   0.8380 B(  3-C , 10-H ) :   0.9333
B(  3-C , 11-H ) :   0.9396 B( 12-C , 13-H ) :   0.9052 B( 12-C , 14-H ) :   0.9276
B( 12-C , 15-O ) :   0.8569 B( 12-C , 16-C ) :   0.8857 B( 16-C , 17-C ) :   0.8926
B( 16-C , 20-O ) :   0.8708 B( 16-C , 21-H ) :   0.9154 B( 17-C , 18-C ) :   0.9127
B( 17-C , 22-O ) :   0.8941 B( 17-C , 23-H ) :   0.9334 B( 18-C , 19-C ) :   0.9391
B( 18-C , 24-H ) :   0.9372 B( 18-C , 25-H ) :   0.9342 B( 19-C , 20-O ) :   0.8504
B( 19-C , 26-H ) :   0.9329 B( 19-C , 27-H ) :   0.9374 B( 22-O , 28-H ) :   0.7932

FINAL SINGLE POINT ENERGY      -652.849466525629

DIPOLE MOMENT
-------------
                                X             Y             Z
Electronic contribution:     -1.30690      -2.60704       2.16792
Nuclear contribution   :      1.53539       3.30192      -3.11460
                        -----------------------------------------
Total Dipole Moment    :      0.22849       0.69489      -0.94668
                        -----------------------------------------
Magnitude (a.u.)       :      1.19636
Magnitude (Debye)      :      3.04090

Rotational constants in cm-1:     0.053982     0.013440     0.012686
Rotational constants in MHz :  1618.342588   402.928252   380.302903

                             ****ORCA TERMINATED NORMALLY****
TOTAL RUN TIME: 0 days 1 hours 3 minutes 32 seconds 165 msec
