                         Program Version 4.2.0 -  RELEASE  -
|  1> # Test redundant internal optimization
|  2> #
|  3> ! RKS B3LYP  Opt TightSCF SmallPrint
|  4>
|  5> %basis
|  6>         Basis "6-31G"
|  7> end
|  8>
|  9> %geom
| 10> Constraints
| 11> { D 4  0  15  12  330.0   C } # D for Dihedral angle
| 12> { D 0  15  12  16  120.0   C } # D for Dihedral angle
| 13> { D 0  4  3  2   C } # D for Dihedral angle
| 14> { D 4  3  2  1   C } # D for Dihedral angle
| 15> { D 3  2  1  0   C } # D for Dihedral angle
| 16> { D 2  1  0  4   C } # D for Dihedral angle
| 17> { D 1  0  4  3   C } # D for Dihedral angle
| 18> { D 16  20  19  18   C } # D for Dihedral angle
| 19> { D 20  19  18  17   C } # D for Dihedral angle
| 20> { D 19  18  17  16   C } # D for Dihedral angle
| 21> { D 18  17  16  20   C } # D for Dihedral angle
| 22> { D 17  16  20  19   C } # D for Dihedral angle
| 23> { D 15  12  16  20   C } # D for Dihedral angle
| 24> end
| 25> end
| 26>
| 27>
| 28> #%pal
| 29> #nprocs 8
| 30> #end
| 31>
| 32> * xyz 0 1
| 33> C  -21.048   26.222   46.251
| 34> C  -20.361   27.558   45.944
| 35> C  -20.329   28.222   47.341
| 36> C  -20.110   27.022   48.296
| 37> O  -20.473   25.807   47.535
| 38> H  -20.833   25.428   45.533
| 39> H  -19.344   27.382   45.576
| 40> H  -20.898   28.157   45.201
| 41> H  -19.543   28.978   47.434
| 42> H  -21.289   28.710   47.548
| 43> H  -20.733   27.082   49.195
| 44> H  -19.064   26.913   48.597
| 45> C  -23.271   25.476   47.424
| 46> H  -24.005   24.835   46.920
| 47> H  -22.529   24.830   47.912
| 48> O  -22.586   26.394   46.375
| 49> C  -24.004   26.276   48.536
| 50> C  -25.175   27.082   47.961
| 51> C  -26.263   25.991   47.814
| 52> C  -26.004   25.069   49.032
| 53> O  -24.631   25.363   49.496
| 54> H  -23.275   26.871   49.089
| 55> O  -25.622   28.169   48.976
| 56> H  -24.935   27.574   47.012
| 57> H  -27.277   26.402   47.810
| 58> H  -26.120   25.442   46.875
| 59> H  -26.077   24.007   48.776
| 60> H  -26.679   25.280   49.866
| 61> H  -25.868   27.699   49.935
| 62> *
| 63>
| 64>                          ****END OF INPUT****
 Total Charge           Charge          ....    0
 Multiplicity           Mult            ....    1
 Number of Electrons    NEL             ....  102
FINAL SINGLE POINT ENERGY      -652.840580487403
FINAL SINGLE POINT ENERGY      -652.862822219601
FINAL SINGLE POINT ENERGY      -652.866240529869
FINAL SINGLE POINT ENERGY      -652.866818955459
FINAL SINGLE POINT ENERGY      -652.866902323702
FINAL SINGLE POINT ENERGY      -652.866915735837
                    ***********************HURRAY********************

CARTESIAN COORDINATES (ANGSTROEM)
---------------------------------
  C    -21.104283   26.181302   46.321232
  C    -20.584821   27.587231   46.022651
  C    -20.529665   28.209309   47.435937
  C    -20.124551   27.019777   48.332836
  O    -20.417714   25.794962   47.531066
  H    -20.853595   25.416395   45.580373
  H    -19.584976   27.514094   45.580011
  H    -21.240071   28.130769   45.338740
  H    -19.817131   29.037096   47.502330
  H    -21.518871   28.586361   47.711133
  H    -20.684183   26.969115   49.269998
  H    -19.053451   26.993432   48.551404
  C    -23.196985   25.359078   47.424752
  H    -23.893685   24.714868   46.874666
  H    -22.457318   24.736255   47.933120
  O    -22.551543   26.248674   46.461192
  C    -23.931063   26.211180   48.459420
  C    -25.062420   27.084620   47.898988
  C    -26.219459   26.060889   47.787221
  C    -25.995312   25.135051   49.008705
  O    -24.592164   25.346680   49.444232
  H    -23.207703   26.821534   49.008717
  O    -25.381523   28.169474   48.815330
  H    -24.802231   27.560707   46.955095
  H    -27.188068   26.566630   47.807497
  H    -26.143106   25.504414   46.847149
  H    -26.138083   24.076066   48.772545
  H    -26.638782   25.392450   49.856391
  H    -25.433244   27.812588   49.727271

 Multiplicity           Mult            ....    1
 Number of Electrons    NEL             ....  102
 Basis Dimension        Dim             ....  149

ORBITAL ENERGIES
----------------

  NO   OCC          E(Eh)            E(eV)
   0   2.0000     -19.150079      -521.1001
   1   2.0000     -19.142860      -520.9037
   2   2.0000     -19.142813      -520.9024
   3   2.0000     -19.134066      -520.6644
   4   2.0000     -10.280710      -279.7523
   5   2.0000     -10.233479      -278.4671
   6   2.0000     -10.230965      -278.3987
   7   2.0000     -10.230319      -278.3811
   8   2.0000     -10.229602      -278.3616
   9   2.0000     -10.223811      -278.2041
  10   2.0000     -10.188225      -277.2357
  11   2.0000     -10.186728      -277.1950
  12   2.0000     -10.185880      -277.1719
  13   2.0000      -1.056099       -28.7379
  14   2.0000      -1.033946       -28.1351
  15   2.0000      -1.002761       -27.2865
  16   2.0000      -0.993816       -27.0431
  17   2.0000      -0.792080       -21.5536
  18   2.0000      -0.777633       -21.1605
  19   2.0000      -0.766147       -20.8479
  20   2.0000      -0.731565       -19.9069
  21   2.0000      -0.671575       -18.2745
  22   2.0000      -0.602891       -16.4055
  23   2.0000      -0.601759       -16.3747
  24   2.0000      -0.593812       -16.1585
  25   2.0000      -0.575795       -15.6682
  26   2.0000      -0.523256       -14.2385
  27   2.0000      -0.510231       -13.8841
  28   2.0000      -0.497726       -13.5438
  29   2.0000      -0.490366       -13.3435
  30   2.0000      -0.473507       -12.8848
  31   2.0000      -0.454930       -12.3793
  32   2.0000      -0.454331       -12.3630
  33   2.0000      -0.433762       -11.8033
  34   2.0000      -0.420529       -11.4432
  35   2.0000      -0.413282       -11.2460
  36   2.0000      -0.400638       -10.9019
  37   2.0000      -0.390412       -10.6236
  38   2.0000      -0.374224       -10.1832
  39   2.0000      -0.364730        -9.9248
  40   2.0000      -0.360579        -9.8119
  41   2.0000      -0.357395        -9.7252
  42   2.0000      -0.351066        -9.5530
  43   2.0000      -0.338235        -9.2039
  44   2.0000      -0.325338        -8.8529
  45   2.0000      -0.308348        -8.3906
  46   2.0000      -0.296890        -8.0788
  47   2.0000      -0.274286        -7.4637
  48   2.0000      -0.264794        -7.2054
  49   2.0000      -0.260571        -7.0905
  50   2.0000      -0.240296        -6.5388
  51   0.0000       0.066319         1.8046
  52   0.0000       0.073693         2.0053
  53   0.0000       0.092861         2.5269
  54   0.0000       0.099356         2.7036
  55   0.0000       0.101977         2.7749

MULLIKEN ATOMIC CHARGES
-----------------------
   0 C :    0.298866
   1 C :   -0.260836
   2 C :   -0.305873
   3 C :   -0.017123
   4 O :   -0.512508
   5 H :    0.150949
   6 H :    0.145743
   7 H :    0.161741
   8 H :    0.145918
   9 H :    0.165974
  10 H :    0.150851
  11 H :    0.150606
  12 C :   -0.020891
  13 H :    0.132664
  14 H :    0.180399
  15 O :   -0.541064
  16 C :    0.057899
  17 C :    0.091421
  18 C :   -0.295984
  19 C :   -0.034732
  20 O :   -0.527445
  21 H :    0.155405
  22 O :   -0.607133
  23 H :    0.173489
  24 H :    0.159627
  25 H :    0.146807
  26 H :    0.148378
  27 H :    0.145766
  28 H :    0.361086
Sum of atomic charges:    0.0000000

LOEWDIN ATOMIC CHARGES
----------------------
   0 C :    0.180094
   1 C :   -0.215906
   2 C :   -0.218240
   3 C :   -0.030980
   4 O :   -0.322183
   5 H :    0.099167
   6 H :    0.114497
   7 H :    0.126571
   8 H :    0.116649
   9 H :    0.119382
  10 H :    0.105182
  11 H :    0.107045
  12 C :   -0.045070
  13 H :    0.098302
  14 H :    0.124619
  15 O :   -0.343303
  16 C :    0.011944
  17 C :    0.036692
  18 C :   -0.239988
  19 C :   -0.039460
  20 O :   -0.331575
  21 H :    0.110411
  22 O :   -0.417469
  23 H :    0.126341
  24 H :    0.125530
  25 H :    0.114915
  26 H :    0.104587
  27 H :    0.101759
  28 H :    0.280490

  Mayer bond orders larger than 0.100000
B(  0-C ,  1-C ) :   0.9439 B(  0-C ,  4-O ) :   0.9082 B(  0-C ,  5-H ) :   0.9244
B(  0-C , 15-O ) :   0.8433 B(  1-C ,  2-C ) :   0.9529 B(  1-C ,  6-H ) :   0.9376
B(  1-C ,  7-H ) :   0.9353 B(  2-C ,  3-C ) :   0.9553 B(  2-C ,  8-H ) :   0.9443
B(  2-C ,  9-H ) :   0.9412 B(  3-C ,  4-O ) :   0.8271 B(  3-C , 10-H ) :   0.9319
B(  3-C , 11-H ) :   0.9399 B( 12-C , 13-H ) :   0.9326 B( 12-C , 14-H ) :   0.9084
B( 12-C , 15-O ) :   0.8197 B( 12-C , 16-C ) :   0.8957 B( 16-C , 17-C ) :   0.9109
B( 16-C , 20-O ) :   0.8420 B( 16-C , 21-H ) :   0.9246 B( 17-C , 18-C ) :   0.9132
B( 17-C , 22-O ) :   0.8865 B( 17-C , 23-H ) :   0.9248 B( 18-C , 19-C ) :   0.9411
B( 18-C , 24-H ) :   0.9383 B( 18-C , 25-H ) :   0.9352 B( 19-C , 20-O ) :   0.8453
B( 19-C , 26-H ) :   0.9350 B( 19-C , 27-H ) :   0.9377 B( 22-O , 28-H ) :   0.7973

FINAL SINGLE POINT ENERGY      -652.866917612204

DIPOLE MOMENT
-------------
                                X             Y             Z
Electronic contribution:     -0.30326      -1.76574       0.90063
Nuclear contribution   :      0.39091       1.79385      -1.15346
                        -----------------------------------------
Total Dipole Moment    :      0.08764       0.02811      -0.25284
                        -----------------------------------------
Magnitude (a.u.)       :      0.26907
Magnitude (Debye)      :      0.68392

Rotational constants in cm-1:     0.051751     0.014443     0.013791
Rotational constants in MHz :  1551.460383   432.983585   413.441906

                             ****ORCA TERMINATED NORMALLY****
TOTAL RUN TIME: 0 days 1 hours 15 minutes 13 seconds 782 msec
