                         Program Version 4.2.1 -  RELEASE  -
|  1> # Test redundant internal optimization
|  2> #
|  3> ! RKS B3LYP  Opt TightSCF SmallPrint
|  4>
|  5> %basis
|  6>         Basis "6-31G"
|  7> end
|  8>
|  9> %geom
| 10> Constraints
| 11> { D 4  0  19  14  300.0   C } # D for Dihedral angle
| 12> { D 0  19  14  12  285.0   C } # D for Dihedral angle
| 13> { D 0  4  3  2   C } # D for Dihedral angle
| 14> { D 4  3  2  1   C } # D for Dihedral angle
| 15> { D 3  2  1  0   C } # D for Dihedral angle
| 16> { D 2  1  0  4   C } # D for Dihedral angle
| 17> { D 1  0  4  3   C } # D for Dihedral angle
| 18> { D 14  15  16  17   C } # D for Dihedral angle
| 19> { D 15  16  17  12   C } # D for Dihedral angle
| 20> { D 16  17  12  14   C } # D for Dihedral angle
| 21> { D 17  12  14  15   C } # D for Dihedral angle
| 22> { D 12  14  15  16   C } # D for Dihedral angle
| 23> end
| 24> end
| 25>
| 26>
| 27> #%pal
| 28> #nprocs 8
| 29> #end
| 30>
| 31> * xyz 0 1
| 32> C  -21.048   26.222   46.251
| 33> C  -20.361   27.558   45.944
| 34> C  -20.329   28.222   47.341
| 35> C  -20.110   27.022   48.296
| 36> O  -20.473   25.807   47.535
| 37> H  -20.833   25.428   45.533
| 38> H  -19.344   27.382   45.576
| 39> H  -20.898   28.157   45.201
| 40> H  -19.543   28.978   47.434
| 41> H  -21.289   28.710   47.548
| 42> H  -20.733   27.082   49.195
| 43> H  -19.064   26.913   48.597
| 44> C  -23.251   24.214   45.577
| 45> H  -24.014   23.439   45.748
| 46> C  -23.171   25.189   46.758
| 47> C  -22.340   24.378   47.778
| 48> C  -21.350   23.593   46.882
| 49> O  -21.915   23.613   45.514
| 50> H  -23.434   24.688   44.611
| 51> O  -22.472   26.381   46.366
| 52> H  -24.155   25.477   47.145
| 53> H  -21.828   25.012   48.509
| 54> H  -22.989   23.688   48.332
| 55> H  -21.225   22.553   47.203
| 56> H  -20.365   24.068   46.830
| 57> *
| 58>
| 59>                          ****END OF INPUT****
 Total Charge           Charge          ....    0
 Multiplicity           Mult            ....    1
 Number of Electrons    NEL             ....   86
FINAL SINGLE POINT ENERGY      -538.400446539145
FINAL SINGLE POINT ENERGY      -538.432914003584
FINAL SINGLE POINT ENERGY      -538.435911674672
FINAL SINGLE POINT ENERGY      -538.436569011127
FINAL SINGLE POINT ENERGY      -538.436624644349
FINAL SINGLE POINT ENERGY      -538.436638256640
                    ***********************HURRAY********************

CARTESIAN COORDINATES (ANGSTROEM)
---------------------------------
  C    -20.859651   26.327711   46.186579
  C    -20.427503   27.774704   45.941170
  C    -20.390577   28.340692   47.379494
  C    -19.903534   27.138109   48.219543
  O    -20.131106   25.933509   47.377906
  H    -20.578145   25.601727   45.419813
  H    -19.430660   27.778898   45.486023
  H    -21.123167   28.303505   45.286840
  H    -19.729057   29.206903   47.475771
  H    -21.398788   28.637601   47.681055
  H    -20.450905   27.023559   49.159375
  H    -18.830608   27.172263   48.430689
  C    -23.192544   24.177411   45.549550
  H    -24.095420   23.557966   45.659679
  C    -23.051096   25.146673   46.727631
  C    -22.471562   24.223382   47.817239
  C    -21.556372   23.257366   47.030264
  O    -21.983546   23.347692   45.605694
  H    -23.210168   24.681939   44.582235
  O    -22.295156   26.345551   46.356401
  H    -24.015931   25.565622   47.025897
  H    -21.932458   24.770083   48.590182
  H    -23.307056   23.684316   48.279676
  H    -21.659335   22.216978   47.358206
  H    -20.509656   23.559840   47.077086

 Multiplicity           Mult            ....    1
 Number of Electrons    NEL             ....   86
 Basis Dimension        Dim             ....  127

ORBITAL ENERGIES
----------------

  NO   OCC          E(Eh)            E(eV)
   0   2.0000     -19.142969      -520.9067
   1   2.0000     -19.139582      -520.8145
   2   2.0000     -19.127553      -520.4872
   3   2.0000     -10.274271      -279.5771
   4   2.0000     -10.236679      -278.5542
   5   2.0000     -10.226996      -278.2907
   6   2.0000     -10.217479      -278.0317
   7   2.0000     -10.211271      -277.8628
   8   2.0000     -10.184627      -277.1378
   9   2.0000     -10.182988      -277.0932
  10   2.0000     -10.179031      -276.9855
  11   2.0000      -1.050708       -28.5912
  12   2.0000      -1.008852       -27.4523
  13   2.0000      -0.987192       -26.8629
  14   2.0000      -0.791597       -21.5404
  15   2.0000      -0.772536       -21.0218
  16   2.0000      -0.738455       -20.0944
  17   2.0000      -0.717016       -19.5110
  18   2.0000      -0.615543       -16.7498
  19   2.0000      -0.597429       -16.2569
  20   2.0000      -0.592790       -16.1306
  21   2.0000      -0.562469       -15.3056
  22   2.0000      -0.517151       -14.0724
  23   2.0000      -0.497175       -13.5288
  24   2.0000      -0.481134       -13.0923
  25   2.0000      -0.478043       -13.0082
  26   2.0000      -0.446883       -12.1603
  27   2.0000      -0.445483       -12.1222
  28   2.0000      -0.413786       -11.2597
  29   2.0000      -0.411808       -11.2059
  30   2.0000      -0.400689       -10.9033
  31   2.0000      -0.390117       -10.6156
  32   2.0000      -0.369899       -10.0655
  33   2.0000      -0.364660        -9.9229
  34   2.0000      -0.356735        -9.7073
  35   2.0000      -0.352096        -9.5810
  36   2.0000      -0.339074        -9.2267
  37   2.0000      -0.324466        -8.8292
  38   2.0000      -0.304603        -8.2887
  39   2.0000      -0.292836        -7.9685
  40   2.0000      -0.265490        -7.2244
  41   2.0000      -0.255147        -6.9429
  42   2.0000      -0.229137        -6.2351
  43   0.0000       0.079340         2.1589
  44   0.0000       0.095815         2.6072
  45   0.0000       0.104498         2.8435
  46   0.0000       0.115093         3.1318
  47   0.0000       0.116375         3.1667

MULLIKEN ATOMIC CHARGES
-----------------------
   0 C :    0.290312
   1 C :   -0.260370
   2 C :   -0.297427
   3 C :   -0.008572
   4 O :   -0.520552
   5 H :    0.169875
   6 H :    0.146117
   7 H :    0.159247
   8 H :    0.140275
   9 H :    0.160744
  10 H :    0.141240
  11 H :    0.146451
  12 C :   -0.009846
  13 H :    0.123862
  14 C :    0.082514
  15 C :   -0.288842
  16 C :   -0.027056
  17 O :   -0.530461
  18 H :    0.157821
  19 O :   -0.534020
  20 H :    0.143484
  21 H :    0.166582
  22 H :    0.135811
  23 H :    0.132276
  24 H :    0.180536
Sum of atomic charges:    0.0000000

LOEWDIN ATOMIC CHARGES
----------------------
   0 C :    0.173296
   1 C :   -0.213470
   2 C :   -0.215645
   3 C :   -0.030909
   4 O :   -0.328591
   5 H :    0.107748
   6 H :    0.114394
   7 H :    0.125593
   8 H :    0.113285
   9 H :    0.118582
  10 H :    0.101137
  11 H :    0.104187
  12 C :   -0.048062
  13 H :    0.092181
  14 C :    0.042530
  15 C :   -0.233197
  16 C :   -0.039170
  17 O :   -0.340559
  18 H :    0.115737
  19 O :   -0.327888
  20 H :    0.111308
  21 H :    0.130222
  22 H :    0.111629
  23 H :    0.096954
  24 H :    0.118708

  Mayer bond orders larger than 0.100000
B(  0-C ,  1-C ) :   0.9451 B(  0-C ,  4-O ) :   0.8779 B(  0-C ,  5-H ) :   0.9112
B(  0-C , 19-O ) :   0.8546 B(  1-C ,  2-C ) :   0.9555 B(  1-C ,  6-H ) :   0.9407
B(  1-C ,  7-H ) :   0.9365 B(  2-C ,  3-C ) :   0.9563 B(  2-C ,  8-H ) :   0.9452
B(  2-C ,  9-H ) :   0.9442 B(  3-C ,  4-O ) :   0.8335 B(  3-C , 10-H ) :   0.9347
B(  3-C , 11-H ) :   0.9404 B( 12-C , 13-H ) :   0.9141 B( 12-C , 14-C ) :   0.9140
B( 12-C , 17-O ) :   0.8671 B( 12-C , 18-H ) :   0.9338 B( 14-C , 15-C ) :   0.9385
B( 14-C , 19-O ) :   0.8642 B( 14-C , 20-H ) :   0.9378 B( 15-C , 16-C ) :   0.9483
B( 15-C , 21-H ) :   0.9290 B( 15-C , 22-H ) :   0.9351 B( 16-C , 17-O ) :   0.8401
B( 16-C , 23-H ) :   0.9352 B( 16-C , 24-H ) :   0.9204

FINAL SINGLE POINT ENERGY      -538.436639228637

DIPOLE MOMENT
-------------
                                X             Y             Z
Electronic contribution:     -0.52585      -2.09259      -2.25615
Nuclear contribution   :      0.35629       2.83054       2.92074
                        -----------------------------------------
Total Dipole Moment    :     -0.16956       0.73795       0.66459
                        -----------------------------------------
Magnitude (a.u.)       :      1.00747
Magnitude (Debye)      :      2.56079

Rotational constants in cm-1:     0.075465     0.025406     0.023302
Rotational constants in MHz :  2262.391862   761.639664   698.574223

                             ****ORCA TERMINATED NORMALLY****
TOTAL RUN TIME: 0 days 0 hours 8 minutes 0 seconds 449 msec
