                         Program Version 4.2.1 -  RELEASE  -
|  1> # Test redundant internal optimization
|  2> #
|  3> ! RKS B3LYP  Opt TightSCF SmallPrint
|  4>
|  5> %basis
|  6>         Basis "6-31G"
|  7> end
|  8>
|  9> %geom
| 10> Constraints
| 11> { D 4  0  19  14  195.0   C } # D for Dihedral angle
| 12> { D 0  19  14  12  300.0   C } # D for Dihedral angle
| 13> { D 0  4  3  2   C } # D for Dihedral angle
| 14> { D 4  3  2  1   C } # D for Dihedral angle
| 15> { D 3  2  1  0   C } # D for Dihedral angle
| 16> { D 2  1  0  4   C } # D for Dihedral angle
| 17> { D 1  0  4  3   C } # D for Dihedral angle
| 18> { D 14  15  16  17   C } # D for Dihedral angle
| 19> { D 15  16  17  12   C } # D for Dihedral angle
| 20> { D 16  17  12  14   C } # D for Dihedral angle
| 21> { D 17  12  14  15   C } # D for Dihedral angle
| 22> { D 12  14  15  16   C } # D for Dihedral angle
| 23> end
| 24> end
| 25>
| 26>
| 27> #%pal
| 28> #nprocs 8
| 29> #end
| 30>
| 31> * xyz 0 1
| 32> C  -21.048   26.222   46.251
| 33> C  -20.361   27.558   45.944
| 34> C  -20.329   28.222   47.341
| 35> C  -20.110   27.022   48.296
| 36> O  -20.473   25.807   47.535
| 37> H  -20.833   25.428   45.533
| 38> H  -19.344   27.382   45.576
| 39> H  -20.898   28.157   45.201
| 40> H  -19.543   28.978   47.434
| 41> H  -21.289   28.710   47.548
| 42> H  -20.733   27.082   49.195
| 43> H  -19.064   26.913   48.597
| 44> C  -22.653   27.645   44.294
| 45> H  -23.345   27.897   43.475
| 46> C  -23.163   26.451   45.109
| 47> C  -22.772   25.261   44.202
| 48> C  -21.432   25.722   43.576
| 49> O  -21.367   27.189   43.754
| 50> H  -22.452   28.542   44.882
| 51> O  -22.472   26.381   46.366
| 52> H  -24.240   26.497   45.309
| 53> H  -22.674   24.321   44.754
| 54> H  -23.531   25.114   43.424
| 55> H  -21.363   25.486   42.509
| 56> H  -20.563   25.297   44.089
| 57> *
| 58>
| 59>                          ****END OF INPUT****
 Total Charge           Charge          ....    0
 Multiplicity           Mult            ....    1
 Number of Electrons    NEL             ....   86
FINAL SINGLE POINT ENERGY      -538.382076865992
FINAL SINGLE POINT ENERGY      -538.423883732909
FINAL SINGLE POINT ENERGY      -538.427016804846
FINAL SINGLE POINT ENERGY      -538.427630501584
FINAL SINGLE POINT ENERGY      -538.427738048738
FINAL SINGLE POINT ENERGY      -538.427773419229
FINAL SINGLE POINT ENERGY      -538.427767887207
FINAL SINGLE POINT ENERGY      -538.427767618304
                    ***********************HURRAY********************

CARTESIAN COORDINATES (ANGSTROEM)
---------------------------------
  C    -20.788795   26.263531   46.322201
  C    -20.075012   27.600454   46.129552
  C    -20.290171   28.281822   47.504048
  C    -20.227690   27.092893   48.485614
  O    -20.446282   25.878055   47.661852
  H    -20.457929   25.460783   45.659609
  H    -19.008702   27.397805   45.967223
  H    -20.437764   28.171178   45.277234
  H    -19.533613   29.042369   47.718731
  H    -21.276212   28.755717   47.535222
  H    -20.997785   27.130905   49.260731
  H    -19.245430   26.980674   48.955099
  C    -22.738589   27.597999   44.137344
  H    -23.610811   27.801784   43.500062
  C    -23.032955   26.426773   45.079665
  C    -22.845987   25.219894   44.138749
  C    -21.693178   25.659477   43.203283
  O    -21.603238   27.140892   43.321841
  H    -22.441391   28.514282   44.647846
  O    -22.249094   26.368610   46.305916
  H    -24.055442   26.476506   45.464327
  H    -22.625702   24.307377   44.699165
  H    -23.768011   25.056498   43.570320
  H    -21.880367   25.407335   42.154195
  H    -20.721850   25.250390   43.494171

 Multiplicity           Mult            ....    1
 Number of Electrons    NEL             ....   86
 Basis Dimension        Dim             ....  127

ORBITAL ENERGIES
----------------

  NO   OCC          E(Eh)            E(eV)
   0   2.0000     -19.142042      -520.8814
   1   2.0000     -19.135628      -520.7069
   2   2.0000     -19.133845      -520.6584
   3   2.0000     -10.274828      -279.5923
   4   2.0000     -10.243271      -278.7336
   5   2.0000     -10.230854      -278.3957
   6   2.0000     -10.228864      -278.3415
   7   2.0000     -10.219479      -278.0862
   8   2.0000     -10.190893      -277.3083
   9   2.0000     -10.180449      -277.0241
  10   2.0000     -10.176121      -276.9063
  11   2.0000      -1.047834       -28.5130
  12   2.0000      -1.020487       -27.7689
  13   2.0000      -0.984988       -26.8029
  14   2.0000      -0.787596       -21.4316
  15   2.0000      -0.776589       -21.1321
  16   2.0000      -0.746874       -20.3235
  17   2.0000      -0.722210       -19.6523
  18   2.0000      -0.617901       -16.8139
  19   2.0000      -0.607459       -16.5298
  20   2.0000      -0.593211       -16.1421
  21   2.0000      -0.564864       -15.3707
  22   2.0000      -0.519061       -14.1244
  23   2.0000      -0.506292       -13.7769
  24   2.0000      -0.485426       -13.2091
  25   2.0000      -0.478902       -13.0316
  26   2.0000      -0.452750       -12.3199
  27   2.0000      -0.440382       -11.9834
  28   2.0000      -0.434850       -11.8329
  29   2.0000      -0.414884       -11.2896
  30   2.0000      -0.398822       -10.8525
  31   2.0000      -0.395496       -10.7620
  32   2.0000      -0.378807       -10.3079
  33   2.0000      -0.366026        -9.9601
  34   2.0000      -0.361164        -9.8278
  35   2.0000      -0.349624        -9.5138
  36   2.0000      -0.344730        -9.3806
  37   2.0000      -0.320315        -8.7162
  38   2.0000      -0.304321        -8.2810
  39   2.0000      -0.290813        -7.9134
  40   2.0000      -0.263832        -7.1792
  41   2.0000      -0.252494        -6.8707
  42   2.0000      -0.236917        -6.4469
  43   0.0000       0.071778         1.9532
  44   0.0000       0.089091         2.4243
  45   0.0000       0.100719         2.7407
  46   0.0000       0.101943         2.7740
  47   0.0000       0.105481         2.8703

MULLIKEN ATOMIC CHARGES
-----------------------
   0 C :    0.299813
   1 C :   -0.274940
   2 C :   -0.302394
   3 C :   -0.000187
   4 O :   -0.504248
   5 H :    0.138125
   6 H :    0.143283
   7 H :    0.171983
   8 H :    0.139968
   9 H :    0.153014
  10 H :    0.151443
  11 H :    0.139837
  12 C :   -0.026388
  13 H :    0.135188
  14 C :    0.088857
  15 C :   -0.306909
  16 C :   -0.017835
  17 O :   -0.527364
  18 H :    0.156980
  19 O :   -0.517330
  20 H :    0.152083
  21 H :    0.166685
  22 H :    0.147624
  23 H :    0.144227
  24 H :    0.148484
Sum of atomic charges:    0.0000000

LOEWDIN ATOMIC CHARGES
----------------------
   0 C :    0.183359
   1 C :   -0.229955
   2 C :   -0.219094
   3 C :   -0.025866
   4 O :   -0.305993
   5 H :    0.095675
   6 H :    0.114849
   7 H :    0.127508
   8 H :    0.113323
   9 H :    0.113622
  10 H :    0.107536
  11 H :    0.101033
  12 C :   -0.054029
  13 H :    0.099203
  14 C :    0.041832
  15 C :   -0.238209
  16 C :   -0.035299
  17 O :   -0.339657
  18 H :    0.114257
  19 O :   -0.330244
  20 H :    0.115968
  21 H :    0.128190
  22 H :    0.118111
  23 H :    0.102542
  24 H :    0.101339

  Mayer bond orders larger than 0.100000
B(  0-C ,  1-C ) :   0.9310 B(  0-C ,  4-O ) :   0.9298 B(  0-C ,  5-H ) :   0.9148
B(  0-C , 19-O ) :   0.8258 B(  1-C ,  2-C ) :   0.9484 B(  1-C ,  6-H ) :   0.9344
B(  1-C ,  7-H ) :   0.9193 B(  2-C ,  3-C ) :   0.9532 B(  2-C ,  8-H ) :   0.9451
B(  2-C ,  9-H ) :   0.9452 B(  3-C ,  4-O ) :   0.8363 B(  3-C , 10-H ) :   0.9353
B(  3-C , 11-H ) :   0.9399 B( 12-C , 13-H ) :   0.9157 B( 12-C , 14-C ) :   0.9083
B( 12-C , 17-O ) :   0.8492 B( 12-C , 18-H ) :   0.9290 B( 14-C , 15-C ) :   0.9238
B( 14-C , 19-O ) :   0.8877 B( 14-C , 20-H ) :   0.9359 B( 15-C , 16-C ) :   0.9471
B( 15-C , 21-H ) :   0.9359 B( 15-C , 22-H ) :   0.9390 B( 16-C , 17-O ) :   0.8463
B( 16-C , 23-H ) :   0.9335 B( 16-C , 24-H ) :   0.9305

FINAL SINGLE POINT ENERGY      -538.427768409013

DIPOLE MOMENT
-------------
                                X             Y             Z
Electronic contribution:     -0.55488      -1.77433       0.84416
Nuclear contribution   :      0.22885       2.06463      -1.26963
                        -----------------------------------------
Total Dipole Moment    :     -0.32603       0.29030      -0.42548
                        -----------------------------------------
Magnitude (a.u.)       :      0.60959
Magnitude (Debye)      :      1.54946

Rotational constants in cm-1:     0.076123     0.024098     0.022454
Rotational constants in MHz :  2282.108964   722.453285   673.147507

                             ****ORCA TERMINATED NORMALLY****
TOTAL RUN TIME: 0 days 0 hours 9 minutes 47 seconds 386 msec
