                         Program Version 4.2.1 -  RELEASE  -
|  1> # Test redundant internal optimization
|  2> #
|  3> ! RKS B3LYP  Opt TightSCF SmallPrint
|  4>
|  5> %basis
|  6>         Basis "6-31G"
|  7> end
|  8>
|  9> %geom
| 10> Constraints
| 11> { D 4  0  19  14  240.0   C } # D for Dihedral angle
| 12> { D 0  19  14  12  165.0   C } # D for Dihedral angle
| 13> { D 0  4  3  2   C } # D for Dihedral angle
| 14> { D 4  3  2  1   C } # D for Dihedral angle
| 15> { D 3  2  1  0   C } # D for Dihedral angle
| 16> { D 2  1  0  4   C } # D for Dihedral angle
| 17> { D 1  0  4  3   C } # D for Dihedral angle
| 18> { D 14  15  16  17   C } # D for Dihedral angle
| 19> { D 15  16  17  12   C } # D for Dihedral angle
| 20> { D 16  17  12  14   C } # D for Dihedral angle
| 21> { D 17  12  14  15   C } # D for Dihedral angle
| 22> { D 12  14  15  16   C } # D for Dihedral angle
| 23> end
| 24> end
| 25>
| 26>
| 27> #%pal
| 28> #nprocs 8
| 29> #end
| 30>
| 31> * xyz 0 1
| 32> C  -21.048   26.222   46.251
| 33> C  -20.361   27.558   45.944
| 34> C  -20.329   28.222   47.341
| 35> C  -20.110   27.022   48.296
| 36> O  -20.473   25.807   47.535
| 37> H  -20.833   25.428   45.533
| 38> H  -19.344   27.382   45.576
| 39> H  -20.898   28.157   45.201
| 40> H  -19.543   28.978   47.434
| 41> H  -21.289   28.710   47.548
| 42> H  -20.733   27.082   49.195
| 43> H  -19.064   26.913   48.597
| 44> C  -24.701   25.498   45.945
| 45> H  -25.239   24.650   45.494
| 46> C  -23.235   25.530   45.496
| 47> C  -23.352   26.154   44.086
| 48> C  -24.517   27.164   44.243
| 49> O  -25.253   26.769   45.465
| 50> H  -24.842   25.477   47.027
| 51> O  -22.472   26.381   46.366
| 52> H  -22.767   24.539   45.484
| 53> H  -22.426   26.634   43.755
| 54> H  -23.609   25.381   43.351
| 55> H  -25.204   27.150   43.390
| 56> H  -24.164   28.188   44.398
| 57> *
| 58>
| 59>                          ****END OF INPUT****
 Total Charge           Charge          ....    0
 Multiplicity           Mult            ....    1
 Number of Electrons    NEL             ....   86
FINAL SINGLE POINT ENERGY      -538.430466815360
FINAL SINGLE POINT ENERGY      -538.432349746711
FINAL SINGLE POINT ENERGY      -538.432569175484
FINAL SINGLE POINT ENERGY      -538.432592827432
FINAL SINGLE POINT ENERGY      -538.432599774916
                    ***********************HURRAY********************

CARTESIAN COORDINATES (ANGSTROEM)
---------------------------------
  C    -20.975853   26.208365   46.221340
  C    -20.345791   27.576626   45.961035
  C    -20.387344   28.220523   47.367949
  C    -20.141764   27.017244   48.305072
  O    -20.430140   25.807326   47.494378
  H    -20.718673   25.424064   45.502687
  H    -19.310677   27.444660   45.623261
  H    -20.894010   28.149610   45.209870
  H    -19.638800   29.008348   47.493819
  H    -21.378552   28.648657   47.544311
  H    -20.795096   27.015863   49.180930
  H    -19.099798   26.936247   48.629230
  C    -24.663234   25.557640   45.982638
  H    -25.251287   24.718717   45.583024
  C    -23.229215   25.511707   45.452859
  C    -23.398049   26.110208   44.042688
  C    -24.502962   27.175864   44.239160
  O    -25.183542   26.840406   45.507465
  H    -24.706553   25.563694   47.072163
  O    -22.415381   26.354530   46.318108
  H    -22.818442   24.492983   45.435194
  H    -22.465983   26.530850   43.654539
  H    -23.726252   25.323502   43.352281
  H    -25.235782   27.175453   43.424203
  H    -24.092821   28.182914   44.352796

 Multiplicity           Mult            ....    1
 Number of Electrons    NEL             ....   86
 Basis Dimension        Dim             ....  127

ORBITAL ENERGIES
----------------

  NO   OCC          E(Eh)            E(eV)
   0   2.0000     -19.139804      -520.8205
   1   2.0000     -19.136802      -520.7389
   2   2.0000     -19.128227      -520.5055
   3   2.0000     -10.279214      -279.7116
   4   2.0000     -10.242465      -278.7116
   5   2.0000     -10.222263      -278.1619
   6   2.0000     -10.222165      -278.1592
   7   2.0000     -10.221127      -278.1310
   8   2.0000     -10.189439      -277.2687
   9   2.0000     -10.184834      -277.1434
  10   2.0000     -10.183289      -277.1014
  11   2.0000      -1.052160       -28.6307
  12   2.0000      -1.014445       -27.6045
  13   2.0000      -0.989665       -26.9302
  14   2.0000      -0.789557       -21.4849
  15   2.0000      -0.777622       -21.1602
  16   2.0000      -0.742822       -20.2132
  17   2.0000      -0.719770       -19.5859
  18   2.0000      -0.607751       -16.5377
  19   2.0000      -0.600358       -16.3366
  20   2.0000      -0.595723       -16.2104
  21   2.0000      -0.578262       -15.7353
  22   2.0000      -0.520969       -14.1763
  23   2.0000      -0.503946       -13.7131
  24   2.0000      -0.481872       -13.1124
  25   2.0000      -0.479409       -13.0454
  26   2.0000      -0.454882       -12.3780
  27   2.0000      -0.444007       -12.0820
  28   2.0000      -0.423301       -11.5186
  29   2.0000      -0.418426       -11.3860
  30   2.0000      -0.404057       -10.9949
  31   2.0000      -0.385628       -10.4935
  32   2.0000      -0.377436       -10.2706
  33   2.0000      -0.368146       -10.0178
  34   2.0000      -0.357555        -9.7296
  35   2.0000      -0.353570        -9.6211
  36   2.0000      -0.345631        -9.4051
  37   2.0000      -0.315047        -8.5729
  38   2.0000      -0.308223        -8.3872
  39   2.0000      -0.297656        -8.0996
  40   2.0000      -0.265655        -7.2288
  41   2.0000      -0.247910        -6.7460
  42   2.0000      -0.232547        -6.3279
  43   0.0000       0.073847         2.0095
  44   0.0000       0.085712         2.3323
  45   0.0000       0.098589         2.6827
  46   0.0000       0.112392         3.0583
  47   0.0000       0.117636         3.2010

MULLIKEN ATOMIC CHARGES
-----------------------
   0 C :    0.284615
   1 C :   -0.254171
   2 C :   -0.301811
   3 C :   -0.000680
   4 O :   -0.504087
   5 H :    0.137400
   6 H :    0.141249
   7 H :    0.145364
   8 H :    0.140475
   9 H :    0.168730
  10 H :    0.152584
  11 H :    0.139631
  12 C :    0.002096
  13 H :    0.124985
  14 C :    0.061122
  15 C :   -0.300524
  16 C :    0.007836
  17 O :   -0.518819
  18 H :    0.173295
  19 O :   -0.507636
  20 H :    0.134879
  21 H :    0.146458
  22 H :    0.143338
  23 H :    0.136414
  24 H :    0.147258
Sum of atomic charges:   -0.0000000

LOEWDIN ATOMIC CHARGES
----------------------
   0 C :    0.174885
   1 C :   -0.221436
   2 C :   -0.216621
   3 C :   -0.026095
   4 O :   -0.317304
   5 H :    0.096995
   6 H :    0.111542
   7 H :    0.116393
   8 H :    0.113526
   9 H :    0.122407
  10 H :    0.108340
  11 H :    0.101225
  12 C :   -0.033651
  13 H :    0.091944
  14 C :    0.038745
  15 C :   -0.239610
  16 C :   -0.027635
  17 O :   -0.328587
  18 H :    0.125919
  19 O :   -0.324558
  20 H :    0.099485
  21 H :    0.116550
  22 H :    0.113524
  23 H :    0.098850
  24 H :    0.105168

  Mayer bond orders larger than 0.100000
B(  0-C ,  1-C ) :   0.9409 B(  0-C ,  4-O ) :   0.9290 B(  0-C ,  5-H ) :   0.9177
B(  0-C , 19-O ) :   0.8440 B(  1-C ,  2-C ) :   0.9567 B(  1-C ,  6-H ) :   0.9369
B(  1-C ,  7-H ) :   0.9372 B(  2-C ,  3-C ) :   0.9546 B(  2-C ,  8-H ) :   0.9451
B(  2-C ,  9-H ) :   0.9423 B(  3-C ,  4-O ) :   0.8372 B(  3-C , 10-H ) :   0.9346
B(  3-C , 11-H ) :   0.9399 B( 12-C , 13-H ) :   0.9156 B( 12-C , 14-C ) :   0.9364
B( 12-C , 17-O ) :   0.8706 B( 12-C , 18-H ) :   0.9295 B( 14-C , 15-C ) :   0.9311
B( 14-C , 19-O ) :   0.8402 B( 14-C , 20-H ) :   0.9182 B( 15-C , 16-C ) :   0.9438
B( 15-C , 21-H ) :   0.9399 B( 15-C , 22-H ) :   0.9361 B( 16-C , 17-O ) :   0.8626
B( 16-C , 23-H ) :   0.9327 B( 16-C , 24-H ) :   0.9366

FINAL SINGLE POINT ENERGY      -538.432600507641

DIPOLE MOMENT
-------------
                                X             Y             Z
Electronic contribution:     -1.75436      -2.32312       2.09989
Nuclear contribution   :      2.49778       2.36546      -2.97082
                        -----------------------------------------
Total Dipole Moment    :      0.74341       0.04235      -0.87093
                        -----------------------------------------
Magnitude (a.u.)       :      1.14585
Magnitude (Debye)      :      2.91252

Rotational constants in cm-1:     0.079073     0.020347     0.019610
Rotational constants in MHz :  2370.556841   610.002257   587.883811

                             ****ORCA TERMINATED NORMALLY****
TOTAL RUN TIME: 0 days 0 hours 5 minutes 57 seconds 862 msec
