                         Program Version 4.2.0 -  RELEASE  -
|  1> # Test redundant internal optimization
|  2> #
|  3> ! RKS B3LYP  Opt TightSCF SmallPrint
|  4>
|  5> %basis
|  6>         Basis "6-31G"
|  7> end
|  8>
|  9> %geom
| 10> Constraints
| 11> { D 4  0  15  12  120.0   C } # D for Dihedral angle
| 12> { D 0  15  12  16  135.0   C } # D for Dihedral angle
| 13> { D 0  4  3  2   C } # D for Dihedral angle
| 14> { D 4  3  2  1   C } # D for Dihedral angle
| 15> { D 3  2  1  0   C } # D for Dihedral angle
| 16> { D 2  1  0  4   C } # D for Dihedral angle
| 17> { D 1  0  4  3   C } # D for Dihedral angle
| 18> { D 16  20  19  18   C } # D for Dihedral angle
| 19> { D 20  19  18  17   C } # D for Dihedral angle
| 20> { D 19  18  17  16   C } # D for Dihedral angle
| 21> { D 18  17  16  20   C } # D for Dihedral angle
| 22> { D 17  16  20  19   C } # D for Dihedral angle
| 23> { D 15  12  16  20   C } # D for Dihedral angle
| 24> end
| 25> end
| 26>
| 27>
| 28> #%pal
| 29> #nprocs 8
| 30> #end
| 31>
| 32> * xyz 0 1
| 33> C  -21.048   26.222   46.251
| 34> C  -20.361   27.558   45.944
| 35> C  -20.329   28.222   47.341
| 36> C  -20.110   27.022   48.296
| 37> O  -20.473   25.807   47.535
| 38> H  -20.833   25.428   45.533
| 39> H  -19.344   27.382   45.576
| 40> H  -20.898   28.157   45.201
| 41> H  -19.543   28.978   47.434
| 42> H  -21.289   28.710   47.548
| 43> H  -20.733   27.082   49.195
| 44> H  -19.064   26.913   48.597
| 45> C  -23.119   27.818   46.058
| 46> H  -23.379   28.324   46.996
| 47> H  -22.348   28.412   45.549
| 48> O  -22.586   26.394   46.375
| 49> C  -24.378   27.799   45.147
| 50> C  -24.116   27.026   43.850
| 51> C  -24.249   25.559   44.327
| 52> C  -25.363   25.639   45.400
| 53> O  -25.467   27.061   45.794
| 54> H  -24.728   28.822   45.000
| 55> O  -25.209   27.361   42.799
| 56> H  -23.136   27.241   43.410
| 57> H  -24.501   24.870   43.515
| 58> H  -23.306   25.221   44.774
| 59> H  -25.137   25.036   46.286
| 60> H  -26.341   25.341   45.010
| 61> H  -26.199   27.152   43.218
| 62> *
| 63>
| 64>                          ****END OF INPUT****
 Total Charge           Charge          ....    0
 Multiplicity           Mult            ....    1
 Number of Electrons    NEL             ....  102
FINAL SINGLE POINT ENERGY      -652.817318762676
FINAL SINGLE POINT ENERGY      -652.841438299534
FINAL SINGLE POINT ENERGY      -652.851304792167
FINAL SINGLE POINT ENERGY      -652.853135573436
FINAL SINGLE POINT ENERGY      -652.853466406469
FINAL SINGLE POINT ENERGY      -652.853509866666
                    ***********************HURRAY********************

CARTESIAN COORDINATES (ANGSTROEM)
---------------------------------
  C    -21.152850   26.333600   46.342347
  C    -20.242198   27.506175   45.968345
  C    -20.113590   28.260389   47.319004
  C    -20.119973   27.107700   48.350323
  O    -20.681383   25.932073   47.642886
  H    -21.043556   25.453816   45.705698
  H    -19.273308   27.093894   45.666937
  H    -20.604563   28.129407   45.147336
  H    -19.201337   28.861699   47.373682
  H    -20.967386   28.929447   47.470535
  H    -20.736361   27.319960   49.227920
  H    -19.113590   26.829717   48.675922
  C    -23.203676   27.869261   46.083272
  H    -23.526872   28.333306   47.023049
  H    -22.510822   28.552995   45.578510
  O    -22.585751   26.591066   46.396989
  C    -24.435057   27.691552   45.193814
  C    -24.217156   27.029870   43.825895
  C    -24.275499   25.521124   44.189424
  C    -25.333604   25.479352   45.320311
  O    -25.459540   26.865884   45.829168
  H    -24.876077   28.687672   45.059209
  O    -25.269521   27.415838   42.897344
  H    -23.286654   27.323107   43.337074
  H    -24.557715   24.924015   43.317658
  H    -23.305700   25.190630   44.562147
  H    -25.031609   24.831364   46.146575
  H    -26.324022   25.175931   44.965442
  H    -26.137629   27.316157   43.342183

 Multiplicity           Mult            ....    1
 Number of Electrons    NEL             ....  102
 Basis Dimension        Dim             ....  149

ORBITAL ENERGIES
----------------

  NO   OCC          E(Eh)            E(eV)
   0   2.0000     -19.144853      -520.9579
   1   2.0000     -19.142152      -520.8844
   2   2.0000     -19.136370      -520.7271
   3   2.0000     -19.135610      -520.7064
   4   2.0000     -10.286922      -279.9214
   5   2.0000     -10.238325      -278.5990
   6   2.0000     -10.236828      -278.5582
   7   2.0000     -10.233527      -278.4684
   8   2.0000     -10.230626      -278.3895
   9   2.0000     -10.220097      -278.1030
  10   2.0000     -10.200656      -277.5740
  11   2.0000     -10.198371      -277.5118
  12   2.0000     -10.177163      -276.9347
  13   2.0000      -1.054594       -28.6970
  14   2.0000      -1.032364       -28.0920
  15   2.0000      -1.004036       -27.3212
  16   2.0000      -0.994244       -27.0548
  17   2.0000      -0.795971       -21.6595
  18   2.0000      -0.779748       -21.2180
  19   2.0000      -0.765740       -20.8368
  20   2.0000      -0.737622       -20.0717
  21   2.0000      -0.680526       -18.5181
  22   2.0000      -0.610637       -16.6163
  23   2.0000      -0.603584       -16.4244
  24   2.0000      -0.597123       -16.2485
  25   2.0000      -0.568878       -15.4800
  26   2.0000      -0.525638       -14.3033
  27   2.0000      -0.513666       -13.9776
  28   2.0000      -0.509246       -13.8573
  29   2.0000      -0.488191       -13.2843
  30   2.0000      -0.473791       -12.8925
  31   2.0000      -0.457096       -12.4382
  32   2.0000      -0.451071       -12.2743
  33   2.0000      -0.435581       -11.8528
  34   2.0000      -0.427735       -11.6393
  35   2.0000      -0.421447       -11.4682
  36   2.0000      -0.403251       -10.9730
  37   2.0000      -0.388775       -10.5791
  38   2.0000      -0.385206       -10.4820
  39   2.0000      -0.367706       -10.0058
  40   2.0000      -0.365193        -9.9374
  41   2.0000      -0.363490        -9.8911
  42   2.0000      -0.353816        -9.6278
  43   2.0000      -0.327228        -8.9043
  44   2.0000      -0.319175        -8.6852
  45   2.0000      -0.302705        -8.2370
  46   2.0000      -0.297869        -8.1054
  47   2.0000      -0.272565        -7.4169
  48   2.0000      -0.265329        -7.2200
  49   2.0000      -0.257880        -7.0173
  50   2.0000      -0.236754        -6.4424
  51   0.0000       0.063806         1.7362
  52   0.0000       0.074567         2.0291
  53   0.0000       0.088771         2.4156
  54   0.0000       0.096970         2.6387
  55   0.0000       0.105344         2.8666

MULLIKEN ATOMIC CHARGES
-----------------------
   0 C :    0.320101
   1 C :   -0.307913
   2 C :   -0.306566
   3 C :   -0.003830
   4 O :   -0.494150
   5 H :    0.154157
   6 H :    0.160167
   7 H :    0.147350
   8 H :    0.148230
   9 H :    0.153353
  10 H :    0.152643
  11 H :    0.145934
  12 C :    0.000690
  13 H :    0.154792
  14 H :    0.124590
  15 O :   -0.532478
  16 C :    0.075065
  17 C :    0.074804
  18 C :   -0.282504
  19 C :   -0.019632
  20 O :   -0.524385
  21 H :    0.150641
  22 O :   -0.604733
  23 H :    0.139484
  24 H :    0.149490
  25 H :    0.163324
  26 H :    0.163312
  27 H :    0.133606
  28 H :    0.364459
Sum of atomic charges:   -0.0000000

LOEWDIN ATOMIC CHARGES
----------------------
   0 C :    0.181100
   1 C :   -0.233385
   2 C :   -0.220181
   3 C :   -0.028753
   4 O :   -0.311429
   5 H :    0.103606
   6 H :    0.124689
   7 H :    0.114278
   8 H :    0.117583
   9 H :    0.111652
  10 H :    0.108021
  11 H :    0.104584
  12 C :   -0.037443
  13 H :    0.109260
  14 H :    0.095831
  15 O :   -0.330655
  16 C :    0.011250
  17 C :    0.038005
  18 C :   -0.238832
  19 C :   -0.032411
  20 O :   -0.328346
  21 H :    0.113512
  22 O :   -0.417526
  23 H :    0.109751
  24 H :    0.118543
  25 H :    0.124570
  26 H :    0.114091
  27 H :    0.095605
  28 H :    0.283029

  Mayer bond orders larger than 0.100000
B(  0-C ,  1-C ) :   0.9336 B(  0-C ,  4-O ) :   0.9202 B(  0-C ,  5-H ) :   0.9286
B(  0-C , 15-O ) :   0.8611 B(  1-C ,  2-C ) :   0.9503 B(  1-C ,  6-H ) :   0.9325
B(  1-C ,  7-H ) :   0.9271 B(  2-C ,  3-C ) :   0.9499 B(  2-C ,  8-H ) :   0.9454
B(  2-C ,  9-H ) :   0.9420 B(  3-C ,  4-O ) :   0.8434 B(  3-C , 10-H ) :   0.9338
B(  3-C , 11-H ) :   0.9393 B( 12-C , 13-H ) :   0.9210 B( 12-C , 14-H ) :   0.8986
B( 12-C , 15-O ) :   0.8518 B( 12-C , 16-C ) :   0.8959 B( 16-C , 17-C ) :   0.9076
B( 16-C , 20-O ) :   0.8769 B( 16-C , 21-H ) :   0.9201 B( 17-C , 18-C ) :   0.9241
B( 17-C , 22-O ) :   0.8913 B( 17-C , 23-H ) :   0.9379 B( 18-C , 19-C ) :   0.9453
B( 18-C , 24-H ) :   0.9367 B( 18-C , 25-H ) :   0.9212 B( 19-C , 20-O ) :   0.8367
B( 19-C , 26-H ) :   0.9320 B( 19-C , 27-H ) :   0.9374 B( 22-O , 28-H ) :   0.7950

FINAL SINGLE POINT ENERGY      -652.853513894777

DIPOLE MOMENT
-------------
                                X             Y             Z
Electronic contribution:     -4.15288      -1.82730      -0.08360
Nuclear contribution   :      5.20434       2.52378      -0.00025
                        -----------------------------------------
Total Dipole Moment    :      1.05146       0.69649      -0.08385
                        -----------------------------------------
Magnitude (a.u.)       :      1.26399
Magnitude (Debye)      :      3.21282

Rotational constants in cm-1:     0.059120     0.013575     0.013002
Rotational constants in MHz :  1772.379797   406.968562   389.803492

                             ****ORCA TERMINATED NORMALLY****
TOTAL RUN TIME: 0 days 1 hours 1 minutes 43 seconds 957 msec
