                         Program Version 4.2.0 -  RELEASE  -
|  1> # Test redundant internal optimization
|  2> #
|  3> ! RKS B3LYP  Opt TightSCF SmallPrint
|  4>
|  5> %basis
|  6>         Basis "6-31G"
|  7> end
|  8>
|  9> %geom
| 10> Constraints
| 11> { D 4  0  15  12  0.0   C } # D for Dihedral angle
| 12> { D 0  15  12  16  135.0   C } # D for Dihedral angle
| 13> { D 0  4  3  2   C } # D for Dihedral angle
| 14> { D 4  3  2  1   C } # D for Dihedral angle
| 15> { D 3  2  1  0   C } # D for Dihedral angle
| 16> { D 2  1  0  4   C } # D for Dihedral angle
| 17> { D 1  0  4  3   C } # D for Dihedral angle
| 18> { D 16  20  19  18   C } # D for Dihedral angle
| 19> { D 20  19  18  17   C } # D for Dihedral angle
| 20> { D 19  18  17  16   C } # D for Dihedral angle
| 21> { D 18  17  16  20   C } # D for Dihedral angle
| 22> { D 17  16  20  19   C } # D for Dihedral angle
| 23> { D 15  12  16  20   C } # D for Dihedral angle
| 24> end
| 25> end
| 26>
| 27>
| 28> #%pal
| 29> #nprocs 8
| 30> #end
| 31>
| 32> * xyz 0 1
| 33> C  -21.048   26.222   46.251
| 34> C  -20.361   27.558   45.944
| 35> C  -20.329   28.222   47.341
| 36> C  -20.110   27.022   48.296
| 37> O  -20.473   25.807   47.535
| 38> H  -20.833   25.428   45.533
| 39> H  -19.344   27.382   45.576
| 40> H  -20.898   28.157   45.201
| 41> H  -19.543   28.978   47.434
| 42> H  -21.289   28.710   47.548
| 43> H  -20.733   27.082   49.195
| 44> H  -19.064   26.913   48.597
| 45> C  -23.172   26.101   47.783
| 46> H  -23.674   25.125   47.770
| 47> H  -22.371   26.064   48.533
| 48> O  -22.586   26.394   46.375
| 49> C  -24.199   27.173   48.242
| 50> C  -24.668   26.916   49.678
| 51> C  -23.483   27.476   50.500
| 52> C  -23.011   28.687   49.657
| 53> O  -23.567   28.496   48.300
| 54> H  -25.004   27.235   47.507
| 55> H  -25.583   27.483   49.883
| 56> O  -24.947   25.416   49.969
| 57> H  -23.770   27.763   51.517
| 58> H  -22.688   26.725   50.576
| 59> H  -21.919   28.751   49.591
| 60> H  -23.400   29.636   50.034
| 61> H  -24.044   24.827   49.773
| 62> *
| 63>
| 64>                          ****END OF INPUT****
 Total Charge           Charge          ....    0
 Multiplicity           Mult            ....    1
 Number of Electrons    NEL             ....  102
FINAL SINGLE POINT ENERGY      -652.824496421319
FINAL SINGLE POINT ENERGY      -652.848189736350
FINAL SINGLE POINT ENERGY      -652.852532435934
FINAL SINGLE POINT ENERGY      -652.855726829261
FINAL SINGLE POINT ENERGY      -652.855960896912
FINAL SINGLE POINT ENERGY      -652.856040506696
FINAL SINGLE POINT ENERGY      -652.856044622412
                    ***********************HURRAY********************

CARTESIAN COORDINATES (ANGSTROEM)
---------------------------------
  C    -21.077184   26.252604   46.281843
  C    -20.472600   27.610531   45.923031
  C    -20.202280   28.214016   47.320398
  C    -19.804660   26.986394   48.166736
  O    -20.293147   25.797452   47.407557
  H    -20.961316   25.489460   45.507725
  H    -19.542512   27.452721   45.364219
  H    -21.156900   28.214319   45.323559
  H    -19.416538   28.975916   47.305488
  H    -21.126510   28.664217   47.691223
  H    -20.256884   26.977264   49.163586
  H    -18.721993   26.863802   48.265683
  C    -23.070955   26.033551   47.827729
  H    -23.607467   25.078052   47.749382
  H    -22.270260   25.912386   48.565222
  O    -22.507214   26.362975   46.533927
  C    -24.070140   27.117225   48.231372
  C    -24.733810   26.896387   49.602885
  C    -23.676475   27.509166   50.570346
  C    -23.114961   28.695629   49.759834
  O    -23.474520   28.451075   48.335542
  H    -24.811995   27.199622   47.431564
  H    -25.665650   27.463256   49.649092
  O    -25.122649   25.535754   49.903109
  H    -24.115195   27.814010   51.523751
  H    -22.900109   26.761084   50.779050
  H    -22.027575   28.794705   49.841915
  H    -23.575538   29.645899   50.043678
  H    -24.333961   24.979525   50.069554

 Multiplicity           Mult            ....    1
 Number of Electrons    NEL             ....  102
 Basis Dimension        Dim             ....  149

ORBITAL ENERGIES
----------------

  NO   OCC          E(Eh)            E(eV)
   0   2.0000     -19.150867      -521.1216
   1   2.0000     -19.149580      -521.0866
   2   2.0000     -19.144666      -520.9528
   3   2.0000     -19.132549      -520.6231
   4   2.0000     -10.275942      -279.6226
   5   2.0000     -10.247363      -278.8449
   6   2.0000     -10.235801      -278.5303
   7   2.0000     -10.231294      -278.4077
   8   2.0000     -10.230421      -278.3839
   9   2.0000     -10.227156      -278.2951
  10   2.0000     -10.198555      -277.5168
  11   2.0000     -10.180600      -277.0282
  12   2.0000     -10.179131      -276.9882
  13   2.0000      -1.051862       -28.6226
  14   2.0000      -1.035525       -28.1781
  15   2.0000      -1.018556       -27.7163
  16   2.0000      -0.989099       -26.9148
  17   2.0000      -0.787842       -21.4383
  18   2.0000      -0.783742       -21.3267
  19   2.0000      -0.768888       -20.9225
  20   2.0000      -0.733434       -19.9578
  21   2.0000      -0.679312       -18.4850
  22   2.0000      -0.614613       -16.7245
  23   2.0000      -0.600659       -16.3448
  24   2.0000      -0.591083       -16.0842
  25   2.0000      -0.571554       -15.5528
  26   2.0000      -0.529062       -14.3965
  27   2.0000      -0.513846       -13.9824
  28   2.0000      -0.498116       -13.5544
  29   2.0000      -0.490433       -13.3454
  30   2.0000      -0.472148       -12.8478
  31   2.0000      -0.460046       -12.5185
  32   2.0000      -0.445352       -12.1187
  33   2.0000      -0.437134       -11.8950
  34   2.0000      -0.430065       -11.7027
  35   2.0000      -0.415033       -11.2936
  36   2.0000      -0.406180       -11.0527
  37   2.0000      -0.395213       -10.7543
  38   2.0000      -0.383056       -10.4235
  39   2.0000      -0.367826       -10.0091
  40   2.0000      -0.359389        -9.7795
  41   2.0000      -0.354280        -9.6405
  42   2.0000      -0.343438        -9.3454
  43   2.0000      -0.335423        -9.1273
  44   2.0000      -0.328374        -8.9355
  45   2.0000      -0.315736        -8.5916
  46   2.0000      -0.301452        -8.2029
  47   2.0000      -0.273196        -7.4340
  48   2.0000      -0.264846        -7.2068
  49   2.0000      -0.256025        -6.9668
  50   2.0000      -0.235592        -6.4108
  51   0.0000       0.048212         1.3119
  52   0.0000       0.057624         1.5680
  53   0.0000       0.088876         2.4184
  54   0.0000       0.092862         2.5269
  55   0.0000       0.100719         2.7407

MULLIKEN ATOMIC CHARGES
-----------------------
   0 C :    0.304167
   1 C :   -0.254650
   2 C :   -0.328171
   3 C :   -0.025453
   4 O :   -0.515350
   5 H :    0.154082
   6 H :    0.139909
   7 H :    0.165594
   8 H :    0.139883
   9 H :    0.195782
  10 H :    0.133030
  11 H :    0.151075
  12 C :   -0.017766
  13 H :    0.138267
  14 H :    0.140955
  15 O :   -0.535163
  16 C :    0.096218
  17 C :    0.083000
  18 C :   -0.321443
  19 C :   -0.015088
  20 O :   -0.508312
  21 H :    0.168927
  22 H :    0.169314
  23 O :   -0.597204
  24 H :    0.158886
  25 H :    0.134593
  26 H :    0.135976
  27 H :    0.151293
  28 H :    0.357649
Sum of atomic charges:    0.0000000

LOEWDIN ATOMIC CHARGES
----------------------
   0 C :    0.186708
   1 C :   -0.218307
   2 C :   -0.229063
   3 C :   -0.033733
   4 O :   -0.322401
   5 H :    0.102692
   6 H :    0.110992
   7 H :    0.128898
   8 H :    0.114075
   9 H :    0.131599
  10 H :    0.093897
  11 H :    0.106296
  12 C :   -0.048216
  13 H :    0.102235
  14 H :    0.100624
  15 O :   -0.334018
  16 C :    0.016097
  17 C :    0.035772
  18 C :   -0.241091
  19 C :   -0.033353
  20 O :   -0.317322
  21 H :    0.121008
  22 H :    0.120142
  23 O :   -0.404595
  24 H :    0.123665
  25 H :    0.104360
  26 H :    0.097007
  27 H :    0.107111
  28 H :    0.278924

  Mayer bond orders larger than 0.100000
B(  0-C ,  1-C ) :   0.9303 B(  0-C ,  4-O ) :   0.9089 B(  0-C ,  5-H ) :   0.9302
B(  0-C , 15-O ) :   0.8465 B(  1-C ,  2-C ) :   0.9540 B(  1-C ,  6-H ) :   0.9362
B(  1-C ,  7-H ) :   0.9348 B(  2-C ,  3-C ) :   0.9548 B(  2-C ,  8-H ) :   0.9443
B(  2-C ,  9-H ) :   0.9128 B(  3-C ,  4-O ) :   0.8287 B(  3-C , 10-H ) :   0.9308
B(  3-C , 11-H ) :   0.9405 B( 12-C , 13-H ) :   0.9127 B( 12-C , 14-H ) :   0.9092
B( 12-C , 15-O ) :   0.8459 B( 12-C , 16-C ) :   0.9022 B( 16-C , 17-C ) :   0.8715
B( 16-C , 20-O ) :   0.8546 B( 16-C , 21-H ) :   0.9282 B( 17-C , 18-C ) :   0.9212
B( 17-C , 22-H ) :   0.9326 B( 17-C , 23-O ) :   0.9013 B( 18-C , 19-C ) :   0.9423
B( 18-C , 24-H ) :   0.9417 B( 18-C , 25-H ) :   0.9404 B( 19-C , 20-O ) :   0.8474
B( 19-C , 26-H ) :   0.9253 B( 19-C , 27-H ) :   0.9383 B( 23-O , 28-H ) :   0.7970

FINAL SINGLE POINT ENERGY      -652.856043380867

DIPOLE MOMENT
-------------
                                X             Y             Z
Electronic contribution:     -3.49951      -3.29812      -2.60418
Nuclear contribution   :      4.30420       3.79448       3.53269
                        -----------------------------------------
Total Dipole Moment    :      0.80469       0.49636       0.92852
                        -----------------------------------------
Magnitude (a.u.)       :      1.32515
Magnitude (Debye)      :      3.36828

Rotational constants in cm-1:     0.046097     0.017250     0.015609
Rotational constants in MHz :  1381.954598   517.137630   467.951709

                             ****ORCA TERMINATED NORMALLY****
TOTAL RUN TIME: 0 days 0 hours 46 minutes 11 seconds 297 msec
