                         Program Version 4.2.0 -  RELEASE  -
|  1> # Test redundant internal optimization
|  2> #
|  3> ! RKS B3LYP  Opt TightSCF SmallPrint
|  4>
|  5> %basis
|  6>         Basis "6-31G"
|  7> end
|  8>
|  9> %geom
| 10> Constraints
| 11> { D 4  0  15  12  90.0   C } # D for Dihedral angle
| 12> { D 0  15  12  16  150.0   C } # D for Dihedral angle
| 13> { D 0  4  3  2   C } # D for Dihedral angle
| 14> { D 4  3  2  1   C } # D for Dihedral angle
| 15> { D 3  2  1  0   C } # D for Dihedral angle
| 16> { D 2  1  0  4   C } # D for Dihedral angle
| 17> { D 1  0  4  3   C } # D for Dihedral angle
| 18> { D 16  20  19  18   C } # D for Dihedral angle
| 19> { D 20  19  18  17   C } # D for Dihedral angle
| 20> { D 19  18  17  16   C } # D for Dihedral angle
| 21> { D 18  17  16  20   C } # D for Dihedral angle
| 22> { D 17  16  20  19   C } # D for Dihedral angle
| 23> { D 15  12  16  20   C } # D for Dihedral angle
| 24> end
| 25> end
| 26>
| 27>
| 28> #%pal
| 29> #nprocs 8
| 30> #end
| 31>
| 32> * xyz 0 1
| 33> C  -21.048   26.222   46.251
| 34> C  -20.361   27.558   45.944
| 35> C  -20.329   28.222   47.341
| 36> C  -20.110   27.022   48.296
| 37> O  -20.473   25.807   47.535
| 38> H  -20.833   25.428   45.533
| 39> H  -19.344   27.382   45.576
| 40> H  -20.898   28.157   45.201
| 41> H  -19.543   28.978   47.434
| 42> H  -21.289   28.710   47.548
| 43> H  -20.733   27.082   49.195
| 44> H  -19.064   26.913   48.597
| 45> C  -23.061   27.816   46.783
| 46> H  -23.113   27.880   47.877
| 47> H  -22.351   28.574   46.428
| 48> O  -22.586   26.394   46.375
| 49> C  -24.459   28.170   46.206
| 50> C  -25.548   27.260   46.786
| 51> C  -25.786   27.902   48.174
| 52> C  -25.594   29.414   47.900
| 53> O  -24.858   29.519   46.622
| 54> H  -24.406   28.174   45.116
| 55> H  -26.454   27.319   46.172
| 56> O  -25.114   25.771   46.877
| 57> H  -26.776   27.674   48.582
| 58> H  -25.038   27.540   48.889
| 59> H  -25.019   29.913   48.687
| 60> H  -26.544   29.939   47.769
| 61> H  -24.208   25.689   47.488
| 62> *
| 63>
| 64>                          ****END OF INPUT****
 Total Charge           Charge          ....    0
 Multiplicity           Mult            ....    1
 Number of Electrons    NEL             ....  102
FINAL SINGLE POINT ENERGY      -652.809355214272
FINAL SINGLE POINT ENERGY      -652.838533249914
FINAL SINGLE POINT ENERGY      -652.853583176123
FINAL SINGLE POINT ENERGY      -652.857567705482
FINAL SINGLE POINT ENERGY      -652.859332585121
FINAL SINGLE POINT ENERGY      -652.860369963999
FINAL SINGLE POINT ENERGY      -652.860820517862
FINAL SINGLE POINT ENERGY      -652.860930484100
FINAL SINGLE POINT ENERGY      -652.860950435198
FINAL SINGLE POINT ENERGY      -652.860953720387
                    ***********************HURRAY********************

CARTESIAN COORDINATES (ANGSTROEM)
---------------------------------
  C    -21.211017   26.363326   46.424712
  C    -20.277446   27.477304   45.934959
  C    -19.894232   28.190430   47.264785
  C    -19.837294   27.012709   48.269596
  O    -20.584512   25.898725   47.635627
  H    -21.254091   25.497035   45.764234
  H    -19.397826   27.012148   45.479541
  H    -20.737657   28.141167   45.197837
  H    -18.933264   28.708592   47.191294
  H    -20.645688   28.928243   47.555149
  H    -20.296543   27.244849   49.234706
  H    -18.818064   26.653455   48.436387
  C    -23.116024   28.020621   46.954671
  H    -23.168018   28.104274   48.046730
  H    -22.473473   28.815182   46.567677
  O    -22.614626   26.695131   46.583485
  C    -24.497582   28.174851   46.307417
  C    -25.566912   27.185340   46.802515
  C    -25.987485   27.828029   48.157265
  C    -25.888689   29.340003   47.874138
  O    -25.035340   29.488388   46.655517
  H    -24.385081   28.151078   45.220056
  H    -26.415490   27.217733   46.109242
  O    -25.160541   25.810094   46.913888
  H    -26.990652   27.515923   48.458561
  H    -25.287629   27.505163   48.935865
  H    -25.432777   29.908332   48.690951
  H    -26.856147   29.788084   47.630483
  H    -24.175900   25.752790   46.884713

 Multiplicity           Mult            ....    1
 Number of Electrons    NEL             ....  102
 Basis Dimension        Dim             ....  149

ORBITAL ENERGIES
----------------

  NO   OCC          E(Eh)            E(eV)
   0   2.0000     -19.165442      -521.5182
   1   2.0000     -19.150638      -521.1153
   2   2.0000     -19.141321      -520.8618
   3   2.0000     -19.109661      -520.0003
   4   2.0000     -10.293438      -280.0987
   5   2.0000     -10.242111      -278.7020
   6   2.0000     -10.237359      -278.5727
   7   2.0000     -10.234807      -278.5032
   8   2.0000     -10.228975      -278.3446
   9   2.0000     -10.226810      -278.2856
  10   2.0000     -10.203851      -277.6609
  11   2.0000     -10.202412      -277.6217
  12   2.0000     -10.178011      -276.9578
  13   2.0000      -1.064737       -28.9730
  14   2.0000      -1.026115       -27.9220
  15   2.0000      -1.009903       -27.4809
  16   2.0000      -0.990012       -26.9396
  17   2.0000      -0.799456       -21.7543
  18   2.0000      -0.780011       -21.2252
  19   2.0000      -0.767997       -20.8982
  20   2.0000      -0.738972       -20.1084
  21   2.0000      -0.685457       -18.6522
  22   2.0000      -0.614825       -16.7302
  23   2.0000      -0.601883       -16.3781
  24   2.0000      -0.596186       -16.2231
  25   2.0000      -0.577933       -15.7263
  26   2.0000      -0.533648       -14.5213
  27   2.0000      -0.514259       -13.9937
  28   2.0000      -0.513137       -13.9632
  29   2.0000      -0.487171       -13.2566
  30   2.0000      -0.476663       -12.9707
  31   2.0000      -0.465024       -12.6540
  32   2.0000      -0.441397       -12.0110
  33   2.0000      -0.435634       -11.8542
  34   2.0000      -0.428742       -11.6667
  35   2.0000      -0.424263       -11.5448
  36   2.0000      -0.411865       -11.2074
  37   2.0000      -0.393604       -10.7105
  38   2.0000      -0.387764       -10.5516
  39   2.0000      -0.371744       -10.1157
  40   2.0000      -0.367005        -9.9867
  41   2.0000      -0.363614        -9.8944
  42   2.0000      -0.347421        -9.4538
  43   2.0000      -0.341035        -9.2800
  44   2.0000      -0.323469        -8.8020
  45   2.0000      -0.315120        -8.5749
  46   2.0000      -0.292982        -7.9724
  47   2.0000      -0.275229        -7.4894
  48   2.0000      -0.269474        -7.3328
  49   2.0000      -0.249146        -6.7796
  50   2.0000      -0.239231        -6.5098
  51   0.0000       0.055348         1.5061
  52   0.0000       0.069910         1.9024
  53   0.0000       0.088735         2.4146
  54   0.0000       0.097870         2.6632
  55   0.0000       0.101150         2.7524

MULLIKEN ATOMIC CHARGES
-----------------------
   0 C :    0.321120
   1 C :   -0.298246
   2 C :   -0.316103
   3 C :   -0.009405
   4 O :   -0.497339
   5 H :    0.172671
   6 H :    0.164714
   7 H :    0.155585
   8 H :    0.151114
   9 H :    0.154344
  10 H :    0.149372
  11 H :    0.152114
  12 C :   -0.021772
  13 H :    0.147949
  14 H :    0.157241
  15 O :   -0.566850
  16 C :    0.055329
  17 C :    0.115076
  18 C :   -0.296606
  19 C :   -0.024816
  20 O :   -0.523146
  21 H :    0.159508
  22 H :    0.148985
  23 O :   -0.636491
  24 H :    0.149733
  25 H :    0.145548
  26 H :    0.141392
  27 H :    0.150905
  28 H :    0.398074
Sum of atomic charges:   -0.0000000

LOEWDIN ATOMIC CHARGES
----------------------
   0 C :    0.179286
   1 C :   -0.229446
   2 C :   -0.223707
   3 C :   -0.030984
   4 O :   -0.315265
   5 H :    0.116384
   6 H :    0.127458
   7 H :    0.120172
   8 H :    0.118937
   9 H :    0.111927
  10 H :    0.105691
  11 H :    0.107221
  12 C :   -0.046746
  13 H :    0.102243
  14 H :    0.109722
  15 O :   -0.332833
  16 C :    0.017122
  17 C :    0.041192
  18 C :   -0.236624
  19 C :   -0.033300
  20 O :   -0.326735
  21 H :    0.115115
  22 H :    0.105722
  23 O :   -0.432540
  24 H :    0.121296
  25 H :    0.111290
  26 H :    0.101144
  27 H :    0.106557
  28 H :    0.289699

  Mayer bond orders larger than 0.100000
B(  0-C ,  1-C ) :   0.9321 B(  0-C ,  4-O ) :   0.9234 B(  0-C ,  5-H ) :   0.9338
B(  0-C , 15-O ) :   0.8411 B(  1-C ,  2-C ) :   0.9525 B(  1-C ,  6-H ) :   0.9333
B(  1-C ,  7-H ) :   0.9316 B(  2-C ,  3-C ) :   0.9463 B(  2-C ,  8-H ) :   0.9448
B(  2-C ,  9-H ) :   0.9383 B(  3-C ,  4-O ) :   0.8410 B(  3-C , 10-H ) :   0.9343
B(  3-C , 11-H ) :   0.9388 B( 12-C , 13-H ) :   0.9232 B( 12-C , 14-H ) :   0.9119
B( 12-C , 15-O ) :   0.7874 B( 12-C , 16-C ) :   0.8962 B( 16-C , 17-C ) :   0.9151
B( 16-C , 20-O ) :   0.8571 B( 16-C , 21-H ) :   0.9285 B( 17-C , 18-C ) :   0.9003
B( 17-C , 22-H ) :   0.9292 B( 17-C , 23-O ) :   0.9416 B( 18-C , 19-C ) :   0.9380
B( 18-C , 24-H ) :   0.9450 B( 18-C , 25-H ) :   0.9432 B( 19-C , 20-O ) :   0.8305
B( 19-C , 26-H ) :   0.9343 B( 19-C , 27-H ) :   0.9382 B( 23-O , 28-H ) :   0.7228

FINAL SINGLE POINT ENERGY      -652.860954210643

DIPOLE MOMENT
-------------
                                X             Y             Z
Electronic contribution:     -2.18962      -3.75050      -2.08749
Nuclear contribution   :      3.41309       4.89565       2.23402
                        -----------------------------------------
Total Dipole Moment    :      1.22348       1.14515       0.14653
                        -----------------------------------------
Magnitude (a.u.)       :      1.68218
Magnitude (Debye)      :      4.27577

Rotational constants in cm-1:     0.051047     0.014183     0.012947
Rotational constants in MHz :  1530.352822   425.183631   388.153870

                             ****ORCA TERMINATED NORMALLY****
TOTAL RUN TIME: 0 days 0 hours 30 minutes 0 seconds 885 msec
