                         Program Version 4.2.0 -  RELEASE  -
|  1> # Test redundant internal optimization
|  2> #
|  3> ! RKS B3LYP  Opt TightSCF SmallPrint
|  4>
|  5> %basis
|  6>         Basis "6-31G"
|  7> end
|  8>
|  9> %geom
| 10> Constraints
| 11> { D 4  0  15  12  75.0   C } # D for Dihedral angle
| 12> { D 0  15  12  16  120.0   C } # D for Dihedral angle
| 13> { D 0  4  3  2   C } # D for Dihedral angle
| 14> { D 4  3  2  1   C } # D for Dihedral angle
| 15> { D 3  2  1  0   C } # D for Dihedral angle
| 16> { D 2  1  0  4   C } # D for Dihedral angle
| 17> { D 1  0  4  3   C } # D for Dihedral angle
| 18> { D 16  20  19  18   C } # D for Dihedral angle
| 19> { D 20  19  18  17   C } # D for Dihedral angle
| 20> { D 19  18  17  16   C } # D for Dihedral angle
| 21> { D 18  17  16  20   C } # D for Dihedral angle
| 22> { D 17  16  20  19   C } # D for Dihedral angle
| 23> { D 15  12  16  20   C } # D for Dihedral angle
| 24> end
| 25> end
| 26>
| 27>
| 28> #%pal
| 29> #nprocs 8
| 30> #end
| 31>
| 32> * xyz 0 1
| 33> C  -21.048   26.222   46.251
| 34> C  -20.361   27.558   45.944
| 35> C  -20.329   28.222   47.341
| 36> C  -20.110   27.022   48.296
| 37> O  -20.473   25.807   47.535
| 38> H  -20.833   25.428   45.533
| 39> H  -19.344   27.382   45.576
| 40> H  -20.898   28.157   45.201
| 41> H  -19.543   28.978   47.434
| 42> H  -21.289   28.710   47.548
| 43> H  -20.733   27.082   49.195
| 44> H  -19.064   26.913   48.597
| 45> C  -23.049   27.675   47.122
| 46> H  -23.631   27.387   48.006
| 47> H  -22.182   28.259   47.457
| 48> O  -22.586   26.394   46.375
| 49> C  -23.929   28.601   46.237
| 50> C  -24.271   29.905   46.965
| 51> C  -22.966   30.716   46.785
| 52> C  -22.480   30.292   45.377
| 53> O  -23.185   29.034   45.050
| 54> H  -24.797   28.039   45.884
| 55> O  -25.459   30.614   46.260
| 56> H  -24.535   29.754   48.018
| 57> H  -23.123   31.797   46.865
| 58> H  -22.234   30.427   47.549
| 59> H  -21.399   30.117   45.341
| 60> H  -22.747   31.021   44.606
| 61> H  -25.216   30.776   45.204
| 62> *
| 63>
| 64>                          ****END OF INPUT****
 Total Charge           Charge          ....    0
 Multiplicity           Mult            ....    1
 Number of Electrons    NEL             ....  102
FINAL SINGLE POINT ENERGY      -652.776212337784
FINAL SINGLE POINT ENERGY      -652.826294546023
FINAL SINGLE POINT ENERGY      -652.847987203716
FINAL SINGLE POINT ENERGY      -652.852753269612
FINAL SINGLE POINT ENERGY      -652.853541983294
FINAL SINGLE POINT ENERGY      -652.853773290739
FINAL SINGLE POINT ENERGY      -652.853825389545
FINAL SINGLE POINT ENERGY      -652.853839520216
FINAL SINGLE POINT ENERGY      -652.853839414392
                    ***********************HURRAY********************

CARTESIAN COORDINATES (ANGSTROEM)
---------------------------------
  C    -21.202149   26.330279   46.382054
  C    -20.203354   27.419065   45.959680
  C    -19.803555   28.043373   47.329265
  C    -19.822060   26.813711   48.274997
  O    -20.613946   25.770469   47.582734
  H    -21.238473   25.503303   45.671080
  H    -19.339697   26.936012   45.492189
  H    -20.648620   28.128000   45.258697
  H    -18.812714   28.508935   47.298079
  H    -20.511200   28.814656   47.644014
  H    -20.276777   27.023649   49.248452
  H    -18.821113   26.401766   48.433262
  C    -23.138228   27.801823   47.190810
  H    -23.833402   27.418181   47.948510
  H    -22.364615   28.377079   47.705868
  O    -22.597786   26.656291   46.482912
  C    -23.907759   28.678705   46.202978
  C    -24.518607   29.951487   46.808759
  C    -23.310409   30.924136   46.778560
  C    -22.567857   30.525321   45.478964
  O    -23.053029   29.168931   45.113955
  H    -24.673900   28.060682   45.725592
  O    -25.623463   30.437867   46.000524
  H    -24.932410   29.810445   47.808539
  H    -23.652357   31.961966   46.773752
  H    -22.679827   30.773521   47.661864
  H    -21.480892   30.492819   45.603896
  H    -22.803199   31.187240   44.639826
  H    -25.382602   30.369286   45.052189

 Multiplicity           Mult            ....    1
 Number of Electrons    NEL             ....  102
 Basis Dimension        Dim             ....  149

ORBITAL ENERGIES
----------------

  NO   OCC          E(Eh)            E(eV)
   0   2.0000     -19.150746      -521.1183
   1   2.0000     -19.143523      -520.9217
   2   2.0000     -19.140100      -520.8286
   3   2.0000     -19.137710      -520.7636
   4   2.0000     -10.274823      -279.5921
   5   2.0000     -10.248854      -278.8855
   6   2.0000     -10.239004      -278.6175
   7   2.0000     -10.237390      -278.5735
   8   2.0000     -10.236070      -278.5376
   9   2.0000     -10.228439      -278.3300
  10   2.0000     -10.197230      -277.4807
  11   2.0000     -10.194385      -277.4033
  12   2.0000     -10.185293      -277.1559
  13   2.0000      -1.049724       -28.5644
  14   2.0000      -1.040364       -28.3097
  15   2.0000      -1.012092       -27.5404
  16   2.0000      -0.993520       -27.0350
  17   2.0000      -0.791827       -21.5467
  18   2.0000      -0.786221       -21.3942
  19   2.0000      -0.775836       -21.1116
  20   2.0000      -0.733701       -19.9650
  21   2.0000      -0.682710       -18.5775
  22   2.0000      -0.611130       -16.6297
  23   2.0000      -0.604004       -16.4358
  24   2.0000      -0.602677       -16.3997
  25   2.0000      -0.577575       -15.7166
  26   2.0000      -0.528788       -14.3891
  27   2.0000      -0.512207       -13.9379
  28   2.0000      -0.505291       -13.7497
  29   2.0000      -0.488820       -13.3015
  30   2.0000      -0.479054       -13.0357
  31   2.0000      -0.462370       -12.5817
  32   2.0000      -0.455755       -12.4017
  33   2.0000      -0.440545       -11.9878
  34   2.0000      -0.428343       -11.6558
  35   2.0000      -0.417346       -11.3566
  36   2.0000      -0.408232       -11.1086
  37   2.0000      -0.399642       -10.8748
  38   2.0000      -0.380988       -10.3672
  39   2.0000      -0.378207       -10.2915
  40   2.0000      -0.366795        -9.9810
  41   2.0000      -0.358117        -9.7449
  42   2.0000      -0.348339        -9.4788
  43   2.0000      -0.336974        -9.1695
  44   2.0000      -0.314512        -8.5583
  45   2.0000      -0.312689        -8.5087
  46   2.0000      -0.298629        -8.1261
  47   2.0000      -0.276808        -7.5323
  48   2.0000      -0.267131        -7.2690
  49   2.0000      -0.258730        -7.0404
  50   2.0000      -0.242419        -6.5966
  51   0.0000       0.046467         1.2644
  52   0.0000       0.073095         1.9890
  53   0.0000       0.081868         2.2278
  54   0.0000       0.094816         2.5801
  55   0.0000       0.099732         2.7138

MULLIKEN ATOMIC CHARGES
-----------------------
   0 C :    0.306462
   1 C :   -0.290580
   2 C :   -0.319952
   3 C :   -0.008929
   4 O :   -0.503574
   5 H :    0.168062
   6 H :    0.152760
   7 H :    0.177690
   8 H :    0.142967
   9 H :    0.139177
  10 H :    0.141150
  11 H :    0.147808
  12 C :   -0.006783
  13 H :    0.151655
  14 H :    0.119661
  15 O :   -0.515183
  16 C :    0.069522
  17 C :    0.078365
  18 C :   -0.292427
  19 C :   -0.042386
  20 O :   -0.513177
  21 H :    0.173696
  22 O :   -0.599807
  23 H :    0.153074
  24 H :    0.166183
  25 H :    0.139389
  26 H :    0.146966
  27 H :    0.152128
  28 H :    0.366081
Sum of atomic charges:    0.0000000

LOEWDIN ATOMIC CHARGES
----------------------
   0 C :    0.178830
   1 C :   -0.232610
   2 C :   -0.225206
   3 C :   -0.034619
   4 O :   -0.323246
   5 H :    0.114503
   6 H :    0.121054
   7 H :    0.130857
   8 H :    0.114337
   9 H :    0.100899
  10 H :    0.100683
  11 H :    0.104910
  12 C :   -0.040650
  13 H :    0.111520
  14 H :    0.093500
  15 O :   -0.311198
  16 C :    0.012167
  17 C :    0.035600
  18 C :   -0.240240
  19 C :   -0.043013
  20 O :   -0.325304
  21 H :    0.122737
  22 O :   -0.412045
  23 H :    0.116336
  24 H :    0.128530
  25 H :    0.110230
  26 H :    0.101966
  27 H :    0.105241
  28 H :    0.284231

  Mayer bond orders larger than 0.100000
B(  0-C ,  1-C ) :   0.9184 B(  0-C ,  4-O ) :   0.8980 B(  0-C ,  5-H ) :   0.9363
B(  0-C , 15-O ) :   0.9024 B(  1-C ,  2-C ) :   0.9562 B(  1-C ,  6-H ) :   0.9347
B(  1-C ,  7-H ) :   0.9186 B(  2-C ,  3-C ) :   0.9448 B(  2-C ,  8-H ) :   0.9450
B(  2-C ,  9-H ) :   0.9366 B(  3-C ,  4-O ) :   0.8531 B(  3-C , 10-H ) :   0.9343
B(  3-C , 11-H ) :   0.9385 B( 12-C , 13-H ) :   0.9225 B( 12-C , 14-H ) :   0.9098
B( 12-C , 15-O ) :   0.8443 B( 12-C , 16-C ) :   0.8971 B( 16-C , 17-C ) :   0.8952
B( 16-C , 20-O ) :   0.8573 B( 16-C , 21-H ) :   0.9230 B( 17-C , 18-C ) :   0.9088
B( 17-C , 22-O ) :   0.8947 B( 17-C , 23-H ) :   0.9334 B( 18-C , 19-C ) :   0.9435
B( 18-C , 24-H ) :   0.9365 B( 18-C , 25-H ) :   0.9346 B( 19-C , 20-O ) :   0.8500
B( 19-C , 26-H ) :   0.9292 B( 19-C , 27-H ) :   0.9370 B( 22-O , 28-H ) :   0.7941

FINAL SINGLE POINT ENERGY      -652.853837522639

DIPOLE MOMENT
-------------
                                X             Y             Z
Electronic contribution:     -4.84974      -4.40180      -2.28165
Nuclear contribution   :      5.84899       5.73203       2.60568
                        -----------------------------------------
Total Dipole Moment    :      0.99925       1.33023       0.32403
                        -----------------------------------------
Magnitude (a.u.)       :      1.69500
Magnitude (Debye)      :      4.30834

Rotational constants in cm-1:     0.055744     0.014729     0.013789
Rotational constants in MHz :  1671.160578   441.576950   413.393994

                             ****ORCA TERMINATED NORMALLY****
TOTAL RUN TIME: 0 days 0 hours 41 minutes 52 seconds 993 msec
