                         Program Version 4.2.0 -  RELEASE  -
|  1> # Test redundant internal optimization
|  2> #
|  3> ! RKS B3LYP  Opt TightSCF SmallPrint
|  4>
|  5> %basis
|  6>         Basis "6-31G"
|  7> end
|  8>
|  9> %geom
| 10> Constraints
| 11> { D 4  0  15  12  300.0   C } # D for Dihedral angle
| 12> { D 0  15  12  16  30.0   C } # D for Dihedral angle
| 13> { D 0  4  3  2   C } # D for Dihedral angle
| 14> { D 4  3  2  1   C } # D for Dihedral angle
| 15> { D 3  2  1  0   C } # D for Dihedral angle
| 16> { D 2  1  0  4   C } # D for Dihedral angle
| 17> { D 1  0  4  3   C } # D for Dihedral angle
| 18> { D 16  20  19  18   C } # D for Dihedral angle
| 19> { D 20  19  18  17   C } # D for Dihedral angle
| 20> { D 19  18  17  16   C } # D for Dihedral angle
| 21> { D 18  17  16  20   C } # D for Dihedral angle
| 22> { D 17  16  20  19   C } # D for Dihedral angle
| 23> { D 15  12  16  20   C } # D for Dihedral angle
| 24> end
| 25> end
| 26>
| 27>
| 28> #%pal
| 29> #nprocs 8
| 30> #end
| 31>
| 32> * xyz 0 1
| 33> C  -21.048   26.222   46.251
| 34> C  -20.361   27.558   45.944
| 35> C  -20.329   28.222   47.341
| 36> C  -20.110   27.022   48.296
| 37> O  -20.473   25.807   47.535
| 38> H  -20.833   25.428   45.533
| 39> H  -19.344   27.382   45.576
| 40> H  -20.898   28.157   45.201
| 41> H  -19.543   28.978   47.434
| 42> H  -21.289   28.710   47.548
| 43> H  -20.733   27.082   49.195
| 44> H  -19.064   26.913   48.597
| 45> C  -23.362   25.116   46.798
| 46> H  -24.263   25.407   47.351
| 47> H  -23.671   24.545   45.913
| 48> O  -22.586   26.394   46.375
| 49> C  -22.518   24.173   47.699
| 50> C  -23.271   22.872   48.001
| 51> C  -23.052   22.072   46.695
| 52> C  -21.622   22.487   46.264
| 53> O  -21.309   23.735   46.993
| 54> H  -22.191   24.722   48.585
| 55> O  -22.615   22.144   49.206
| 56> H  -24.330   23.031   48.229
| 57> H  -23.147   20.991   46.837
| 58> H  -23.786   22.377   45.939
| 59> H  -21.546   22.673   45.187
| 60> H  -20.869   21.748   46.551
| 61> H  -21.552   21.973   48.999
| 62> *
| 63>
| 64>                          ****END OF INPUT****
 Total Charge           Charge          ....    0
 Multiplicity           Mult            ....    1
 Number of Electrons    NEL             ....  102
FINAL SINGLE POINT ENERGY      -652.819341069488
FINAL SINGLE POINT ENERGY      -652.842928683054
FINAL SINGLE POINT ENERGY      -652.854900304627
FINAL SINGLE POINT ENERGY      -652.856674838287
FINAL SINGLE POINT ENERGY      -652.857079883708
FINAL SINGLE POINT ENERGY      -652.857121254274
FINAL SINGLE POINT ENERGY      -652.857126018745
                    ***********************HURRAY********************

CARTESIAN COORDINATES (ANGSTROEM)
---------------------------------
  C    -20.892661   26.288465   46.222783
  C    -20.490283   27.740863   45.962761
  C    -20.463007   28.321182   47.395272
  C    -19.951408   27.138563   48.245328
  O    -20.155506   25.920755   47.415782
  H    -20.599862   25.558975   45.464842
  H    -19.493303   27.757948   45.507788
  H    -21.194218   28.252257   45.303062
  H    -19.821138   29.203497   47.480745
  H    -21.477240   28.600828   47.693787
  H    -20.494055   27.022700   49.187758
  H    -18.879043   27.197313   48.455040
  C    -23.091461   25.111499   46.798127
  H    -23.955581   25.521122   47.333052
  H    -23.462762   24.638921   45.875896
  O    -22.324950   26.286318   46.406771
  C    -22.435487   24.040331   47.673285
  C    -23.352023   22.839120   47.958769
  C    -23.163500   21.986866   46.674384
  C    -21.676717   22.223834   46.311632
  O    -21.251553   23.447947   47.036854
  H    -22.077616   24.490005   48.602080
  O    -22.911329   22.129539   49.147568
  H    -24.391943   23.107044   48.150741
  H    -23.394066   20.936724   46.871686
  H    -23.831394   22.342310   45.881888
  H    -21.522005   22.371686   45.238040
  H    -21.027544   21.409134   46.646937
  H    -21.933347   22.055251   49.130340

 Multiplicity           Mult            ....    1
 Number of Electrons    NEL             ....  102
 Basis Dimension        Dim             ....  149

ORBITAL ENERGIES
----------------

  NO   OCC          E(Eh)            E(eV)
   0   2.0000     -19.139177      -520.8035
   1   2.0000     -19.138368      -520.7815
   2   2.0000     -19.135854      -520.7131
   3   2.0000     -19.129824      -520.5490
   4   2.0000     -10.269308      -279.4421
   5   2.0000     -10.243266      -278.7334
   6   2.0000     -10.231413      -278.4109
   7   2.0000     -10.231280      -278.4073
   8   2.0000     -10.228725      -278.3378
   9   2.0000     -10.217414      -278.0300
  10   2.0000     -10.189355      -277.2664
  11   2.0000     -10.178327      -276.9664
  12   2.0000     -10.177942      -276.9559
  13   2.0000      -1.044493       -28.4221
  14   2.0000      -1.032491       -28.0955
  15   2.0000      -1.003922       -27.3181
  16   2.0000      -0.984155       -26.7802
  17   2.0000      -0.787138       -21.4191
  18   2.0000      -0.778881       -21.1944
  19   2.0000      -0.762445       -20.7472
  20   2.0000      -0.727536       -19.7973
  21   2.0000      -0.671395       -18.2696
  22   2.0000      -0.603173       -16.4132
  23   2.0000      -0.599479       -16.3127
  24   2.0000      -0.590269       -16.0620
  25   2.0000      -0.568255       -15.4630
  26   2.0000      -0.520549       -14.1649
  27   2.0000      -0.508992       -13.8504
  28   2.0000      -0.492954       -13.4140
  29   2.0000      -0.476796       -12.9743
  30   2.0000      -0.472592       -12.8599
  31   2.0000      -0.456460       -12.4209
  32   2.0000      -0.445532       -12.1235
  33   2.0000      -0.436590       -11.8802
  34   2.0000      -0.413437       -11.2502
  35   2.0000      -0.408154       -11.1064
  36   2.0000      -0.393832       -10.7167
  37   2.0000      -0.392354       -10.6765
  38   2.0000      -0.373448       -10.1620
  39   2.0000      -0.365560        -9.9474
  40   2.0000      -0.358299        -9.7498
  41   2.0000      -0.350460        -9.5365
  42   2.0000      -0.340622        -9.2688
  43   2.0000      -0.334984        -9.1154
  44   2.0000      -0.322146        -8.7660
  45   2.0000      -0.301615        -8.2074
  46   2.0000      -0.285907        -7.7799
  47   2.0000      -0.271268        -7.3816
  48   2.0000      -0.256313        -6.9746
  49   2.0000      -0.251452        -6.8424
  50   2.0000      -0.234899        -6.3919
  51   0.0000       0.064848         1.7646
  52   0.0000       0.087927         2.3926
  53   0.0000       0.092406         2.5145
  54   0.0000       0.096702         2.6314
  55   0.0000       0.106535         2.8990

MULLIKEN ATOMIC CHARGES
-----------------------
   0 C :    0.309583
   1 C :   -0.260956
   2 C :   -0.295767
   3 C :   -0.011939
   4 O :   -0.494063
   5 H :    0.148212
   6 H :    0.143578
   7 H :    0.154696
   8 H :    0.136520
   9 H :    0.157928
  10 H :    0.138834
  11 H :    0.142651
  12 C :    0.019587
  13 H :    0.146554
  14 H :    0.124535
  15 O :   -0.545610
  16 C :    0.050411
  17 C :    0.078972
  18 C :   -0.297415
  19 C :   -0.036937
  20 O :   -0.499092
  21 H :    0.172031
  22 O :   -0.601581
  23 H :    0.151087
  24 H :    0.162006
  25 H :    0.145051
  26 H :    0.145144
  27 H :    0.148789
  28 H :    0.367191
Sum of atomic charges:   -0.0000000

LOEWDIN ATOMIC CHARGES
----------------------
   0 C :    0.181278
   1 C :   -0.215021
   2 C :   -0.216524
   3 C :   -0.033777
   4 O :   -0.313823
   5 H :    0.100171
   6 H :    0.113103
   7 H :    0.123032
   8 H :    0.111211
   9 H :    0.117006
  10 H :    0.100166
  11 H :    0.102279
  12 C :   -0.035305
  13 H :    0.112973
  14 H :    0.091763
  15 O :   -0.335048
  16 C :    0.004651
  17 C :    0.037536
  18 C :   -0.242708
  19 C :   -0.043311
  20 O :   -0.314154
  21 H :    0.121848
  22 O :   -0.413093
  23 H :    0.115171
  24 H :    0.126076
  25 H :    0.112776
  26 H :    0.103034
  27 H :    0.103686
  28 H :    0.285001

  Mayer bond orders larger than 0.100000
B(  0-C ,  1-C ) :   0.9444 B(  0-C ,  4-O ) :   0.8999 B(  0-C ,  5-H ) :   0.9218
B(  0-C , 15-O ) :   0.8409 B(  1-C ,  2-C ) :   0.9562 B(  1-C ,  6-H ) :   0.9408
B(  1-C ,  7-H ) :   0.9366 B(  2-C ,  3-C ) :   0.9536 B(  2-C ,  8-H ) :   0.9457
B(  2-C ,  9-H ) :   0.9449 B(  3-C ,  4-O ) :   0.8470 B(  3-C , 10-H ) :   0.9353
B(  3-C , 11-H ) :   0.9401 B( 12-C , 13-H ) :   0.9274 B( 12-C , 14-H ) :   0.9237
B( 12-C , 15-O ) :   0.8539 B( 12-C , 16-C ) :   0.8979 B( 16-C , 17-C ) :   0.8934
B( 16-C , 20-O ) :   0.8455 B( 16-C , 21-H ) :   0.9187 B( 17-C , 18-C ) :   0.9102
B( 17-C , 22-O ) :   0.8938 B( 17-C , 23-H ) :   0.9337 B( 18-C , 19-C ) :   0.9385
B( 18-C , 24-H ) :   0.9375 B( 18-C , 25-H ) :   0.9322 B( 19-C , 20-O ) :   0.8543
B( 19-C , 26-H ) :   0.9342 B( 19-C , 27-H ) :   0.9370 B( 22-O , 28-H ) :   0.7927

FINAL SINGLE POINT ENERGY      -652.857126525356

DIPOLE MOMENT
-------------
                                X             Y             Z
Electronic contribution:      0.16071      -2.35277       1.49701
Nuclear contribution   :     -0.29462       2.54021      -2.06792
                        -----------------------------------------
Total Dipole Moment    :     -0.13391       0.18744      -0.57091
                        -----------------------------------------
Magnitude (a.u.)       :      0.61563
Magnitude (Debye)      :      1.56481

Rotational constants in cm-1:     0.058877     0.014298     0.013854
Rotational constants in MHz :  1765.075368   428.653037   415.324315

                             ****ORCA TERMINATED NORMALLY****
TOTAL RUN TIME: 0 days 0 hours 49 minutes 32 seconds 810 msec
