                         Program Version 4.2.0 -  RELEASE  -
|  1> # Test redundant internal optimization
|  2> #
|  3> ! RKS B3LYP  Opt TightSCF SmallPrint
|  4>
|  5> %basis
|  6>         Basis "6-31G"
|  7> end
|  8>
|  9> %geom
| 10> Constraints
| 11> { D 4  0  15  12  60.0   C } # D for Dihedral angle
| 12> { D 0  15  12  16  120.0   C } # D for Dihedral angle
| 13> { D 0  4  3  2   C } # D for Dihedral angle
| 14> { D 4  3  2  1   C } # D for Dihedral angle
| 15> { D 3  2  1  0   C } # D for Dihedral angle
| 16> { D 2  1  0  4   C } # D for Dihedral angle
| 17> { D 1  0  4  3   C } # D for Dihedral angle
| 18> { D 16  20  19  18   C } # D for Dihedral angle
| 19> { D 20  19  18  17   C } # D for Dihedral angle
| 20> { D 19  18  17  16   C } # D for Dihedral angle
| 21> { D 18  17  16  20   C } # D for Dihedral angle
| 22> { D 17  16  20  19   C } # D for Dihedral angle
| 23> { D 15  12  16  20   C } # D for Dihedral angle
| 24> end
| 25> end
| 26>
| 27>
| 28> #%pal
| 29> #nprocs 8
| 30> #end
| 31>
| 32> * xyz 0 1
| 33> C  -21.048   26.222   46.251
| 34> C  -20.361   27.558   45.944
| 35> C  -20.329   28.222   47.341
| 36> C  -20.110   27.022   48.296
| 37> O  -20.473   25.807   47.535
| 38> H  -20.833   25.428   45.533
| 39> H  -19.344   27.382   45.576
| 40> H  -20.898   28.157   45.201
| 41> H  -19.543   28.978   47.434
| 42> H  -21.289   28.710   47.548
| 43> H  -20.733   27.082   49.195
| 44> H  -19.064   26.913   48.597
| 45> C  -23.051   27.452   47.413
| 46> H  -23.665   26.962   48.179
| 47> H  -22.185   27.909   47.909
| 48> O  -22.586   26.394   46.375
| 49> C  -23.887   28.594   46.774
| 50> C  -25.207   28.065   46.202
| 51> C  -26.073   27.937   47.478
| 52> C  -25.605   29.135   48.341
| 53> O  -24.299   29.562   47.796
| 54> H  -23.266   29.133   46.055
| 55> O  -25.819   29.106   45.225
| 56> H  -25.095   27.116   45.667
| 57> H  -27.146   27.968   47.267
| 58> H  -25.858   26.988   47.984
| 59> H  -25.483   28.869   49.397
| 60> H  -26.281   29.991   48.268
| 61> H  -25.942   30.067   45.740
| 62> *
| 63>
| 64>                          ****END OF INPUT****
 Total Charge           Charge          ....    0
 Multiplicity           Mult            ....    1
 Number of Electrons    NEL             ....  102
FINAL SINGLE POINT ENERGY      -652.804244095478
FINAL SINGLE POINT ENERGY      -652.837941881805
FINAL SINGLE POINT ENERGY      -652.854952749131
FINAL SINGLE POINT ENERGY      -652.857641477950
FINAL SINGLE POINT ENERGY      -652.858015213160
FINAL SINGLE POINT ENERGY      -652.858093047245
FINAL SINGLE POINT ENERGY      -652.858102731823
FINAL SINGLE POINT ENERGY      -652.858102768068
                    ***********************HURRAY********************

CARTESIAN COORDINATES (ANGSTROEM)
---------------------------------
  C    -21.223129   26.383287   46.406089
  C    -20.366656   27.566273   45.930237
  C    -19.939570   28.221784   47.277670
  C    -19.774508   26.994254   48.209523
  O    -20.507119   25.879934   47.556458
  H    -21.241583   25.564893   45.684224
  H    -19.494083   27.171425   45.399353
  H    -20.908796   28.242301   45.264109
  H    -19.004736   28.783824   47.184748
  H    -20.701110   28.917753   47.638530
  H    -20.184507   27.150795   49.211843
  H    -18.730946   26.678184   48.297123
  C    -23.154868   27.522413   47.620993
  H    -23.773674   26.932033   48.306069
  H    -22.373171   27.998708   48.214228
  O    -22.632883   26.601455   46.617245
  C    -23.989629   28.595243   46.922827
  C    -25.230824   28.074560   46.184261
  C    -26.239066   27.905409   47.348646
  C    -25.888737   29.079661   48.296406
  O    -24.524457   29.532693   47.918168
  H    -23.354865   29.176242   46.245910
  O    -25.692329   29.045435   45.203789
  H    -25.040889   27.158096   45.628176
  H    -27.266154   27.949038   46.977946
  H    -26.093233   26.938325   47.841135
  H    -25.885989   28.790827   49.351712
  H    -26.557542   29.937379   48.170843
  H    -25.697949   29.936777   45.612739

 Multiplicity           Mult            ....    1
 Number of Electrons    NEL             ....  102
 Basis Dimension        Dim             ....  149

ORBITAL ENERGIES
----------------

  NO   OCC          E(Eh)            E(eV)
   0   2.0000     -19.147014      -521.0167
   1   2.0000     -19.146289      -520.9970
   2   2.0000     -19.144360      -520.9445
   3   2.0000     -19.136056      -520.7186
   4   2.0000     -10.280710      -279.7524
   5   2.0000     -10.236138      -278.5395
   6   2.0000     -10.234057      -278.4829
   7   2.0000     -10.233413      -278.4653
   8   2.0000     -10.232326      -278.4357
   9   2.0000     -10.231997      -278.4268
  10   2.0000     -10.195152      -277.4242
  11   2.0000     -10.192026      -277.3391
  12   2.0000     -10.188001      -277.2296
  13   2.0000      -1.053723       -28.6733
  14   2.0000      -1.036901       -28.2155
  15   2.0000      -1.005205       -27.3530
  16   2.0000      -0.997928       -27.1550
  17   2.0000      -0.790428       -21.5086
  18   2.0000      -0.782871       -21.3030
  19   2.0000      -0.771713       -20.9994
  20   2.0000      -0.734497       -19.9867
  21   2.0000      -0.679641       -18.4940
  22   2.0000      -0.607065       -16.5191
  23   2.0000      -0.604853       -16.4589
  24   2.0000      -0.599824       -16.3220
  25   2.0000      -0.575953       -15.6725
  26   2.0000      -0.528475       -14.3805
  27   2.0000      -0.510843       -13.9008
  28   2.0000      -0.503345       -13.6967
  29   2.0000      -0.492865       -13.4115
  30   2.0000      -0.472791       -12.8653
  31   2.0000      -0.460295       -12.5253
  32   2.0000      -0.446143       -12.1402
  33   2.0000      -0.440237       -11.9795
  34   2.0000      -0.428027       -11.6472
  35   2.0000      -0.417718       -11.3667
  36   2.0000      -0.410053       -11.1581
  37   2.0000      -0.393555       -10.7092
  38   2.0000      -0.383401       -10.4329
  39   2.0000      -0.368388       -10.0243
  40   2.0000      -0.363144        -9.8817
  41   2.0000      -0.360110        -9.7991
  42   2.0000      -0.348608        -9.4861
  43   2.0000      -0.332712        -9.0536
  44   2.0000      -0.318805        -8.6751
  45   2.0000      -0.314618        -8.5612
  46   2.0000      -0.302984        -8.2446
  47   2.0000      -0.277041        -7.5387
  48   2.0000      -0.265412        -7.2222
  49   2.0000      -0.259109        -7.0507
  50   2.0000      -0.242255        -6.5921
  51   0.0000       0.063312         1.7228
  52   0.0000       0.065393         1.7794
  53   0.0000       0.087972         2.3938
  54   0.0000       0.096631         2.6295
  55   0.0000       0.101409         2.7595

MULLIKEN ATOMIC CHARGES
-----------------------
   0 C :    0.301133
   1 C :   -0.274582
   2 C :   -0.325938
   3 C :   -0.014550
   4 O :   -0.503992
   5 H :    0.167716
   6 H :    0.156220
   7 H :    0.152665
   8 H :    0.148169
   9 H :    0.160026
  10 H :    0.147460
  11 H :    0.150165
  12 C :   -0.013043
  13 H :    0.145666
  14 H :    0.146204
  15 O :   -0.528610
  16 C :    0.060083
  17 C :    0.088650
  18 C :   -0.295495
  19 C :   -0.036344
  20 O :   -0.528908
  21 H :    0.153586
  22 O :   -0.604163
  23 H :    0.179102
  24 H :    0.162055
  25 H :    0.149088
  26 H :    0.149028
  27 H :    0.147322
  28 H :    0.361286
Sum of atomic charges:   -0.0000000

LOEWDIN ATOMIC CHARGES
----------------------
   0 C :    0.176552
   1 C :   -0.229122
   2 C :   -0.226386
   3 C :   -0.035239
   4 O :   -0.320387
   5 H :    0.114003
   6 H :    0.121906
   7 H :    0.119702
   8 H :    0.117153
   9 H :    0.112614
  10 H :    0.103270
  11 H :    0.106268
  12 C :   -0.039593
  13 H :    0.105431
  14 H :    0.107284
  15 O :   -0.324416
  16 C :    0.010606
  17 C :    0.038232
  18 C :   -0.240081
  19 C :   -0.039591
  20 O :   -0.334193
  21 H :    0.110642
  22 O :   -0.415330
  23 H :    0.129375
  24 H :    0.126848
  25 H :    0.116121
  26 H :    0.104985
  27 H :    0.102643
  28 H :    0.280706

  Mayer bond orders larger than 0.100000
B(  0-C ,  1-C ) :   0.9163 B(  0-C ,  4-O ) :   0.9071 B(  0-C ,  5-H ) :   0.9360
B(  0-C , 15-O ) :   0.8914 B(  1-C ,  2-C ) :   0.9541 B(  1-C ,  6-H ) :   0.9344
B(  1-C ,  7-H ) :   0.9354 B(  2-C ,  3-C ) :   0.9461 B(  2-C ,  8-H ) :   0.9444
B(  2-C ,  9-H ) :   0.9379 B(  3-C ,  4-O ) :   0.8439 B(  3-C , 10-H ) :   0.9325
B(  3-C , 11-H ) :   0.9382 B( 12-C , 13-H ) :   0.9335 B( 12-C , 14-H ) :   0.9104
B( 12-C , 15-O ) :   0.8209 B( 12-C , 16-C ) :   0.8901 B( 16-C , 17-C ) :   0.9128
B( 16-C , 20-O ) :   0.8429 B( 16-C , 21-H ) :   0.9263 B( 17-C , 18-C ) :   0.9129
B( 17-C , 22-O ) :   0.8881 B( 17-C , 23-H ) :   0.9233 B( 18-C , 19-C ) :   0.9410
B( 18-C , 24-H ) :   0.9375 B( 18-C , 25-H ) :   0.9341 B( 19-C , 20-O ) :   0.8431
B( 19-C , 26-H ) :   0.9352 B( 19-C , 27-H ) :   0.9375 B( 22-O , 28-H ) :   0.7969

FINAL SINGLE POINT ENERGY      -652.858091904470

DIPOLE MOMENT
-------------
                                X             Y             Z
Electronic contribution:     -1.67769      -1.60904      -1.78410
Nuclear contribution   :      2.02044       2.20696       2.33806
                        -----------------------------------------
Total Dipole Moment    :      0.34275       0.59792       0.55396
                        -----------------------------------------
Magnitude (a.u.)       :      0.88422
Magnitude (Debye)      :      2.24752

Rotational constants in cm-1:     0.055527     0.013162     0.012699
Rotational constants in MHz :  1664.665251   394.589873   380.708494

                             ****ORCA TERMINATED NORMALLY****
TOTAL RUN TIME: 0 days 2 hours 1 minutes 33 seconds 163 msec
