                         Program Version 4.2.0 -  RELEASE  -
|  1> # Test redundant internal optimization
|  2> #
|  3> ! RKS B3LYP  Opt TightSCF SmallPrint
|  4>
|  5> %basis
|  6>         Basis "6-31G"
|  7> end
|  8>
|  9> %geom
| 10> Constraints
| 11> { D 4  0  15  12  240.0   C } # D for Dihedral angle
| 12> { D 0  15  12  16  75.0   C } # D for Dihedral angle
| 13> { D 0  4  3  2   C } # D for Dihedral angle
| 14> { D 4  3  2  1   C } # D for Dihedral angle
| 15> { D 3  2  1  0   C } # D for Dihedral angle
| 16> { D 2  1  0  4   C } # D for Dihedral angle
| 17> { D 1  0  4  3   C } # D for Dihedral angle
| 18> { D 16  20  19  18   C } # D for Dihedral angle
| 19> { D 20  19  18  17   C } # D for Dihedral angle
| 20> { D 19  18  17  16   C } # D for Dihedral angle
| 21> { D 18  17  16  20   C } # D for Dihedral angle
| 22> { D 17  16  20  19   C } # D for Dihedral angle
| 23> { D 15  12  16  20   C } # D for Dihedral angle
| 24> end
| 25> end
| 26>
| 27>
| 28> #%pal
| 29> #nprocs 8
| 30> #end
| 31>
| 32> * xyz 0 1
| 33> C  -21.048   26.222   46.251
| 34> C  -20.361   27.558   45.944
| 35> C  -20.329   28.222   47.341
| 36> C  -20.110   27.022   48.296
| 37> O  -20.473   25.807   47.535
| 38> H  -20.833   25.428   45.533
| 39> H  -19.344   27.382   45.576
| 40> H  -20.898   28.157   45.201
| 41> H  -19.543   28.978   47.434
| 42> H  -21.289   28.710   47.548
| 43> H  -20.733   27.082   49.195
| 44> H  -19.064   26.913   48.597
| 45> C  -23.430   25.483   45.442
| 46> H  -24.458   25.863   45.398
| 47> H  -23.018   25.489   44.425
| 48> O  -22.586   26.394   46.375
| 49> C  -23.475   24.006   45.925
| 50> C  -24.193   23.884   47.274
| 51> C  -25.678   23.951   46.845
| 52> C  -25.684   23.216   45.481
| 53> O  -24.283   23.193   45.010
| 54> H  -22.464   23.595   45.912
| 55> H  -23.966   22.915   47.733
| 56> O  -23.803   25.004   48.277
| 57> H  -26.351   23.485   47.573
| 58> H  -25.988   24.996   46.724
| 59> H  -26.305   23.723   44.735
| 60> H  -26.013   22.178   45.568
| 61> H  -24.022   25.984   47.837
| 62> *
| 63>
| 64>                          ****END OF INPUT****
 Total Charge           Charge          ....    0
 Multiplicity           Mult            ....    1
 Number of Electrons    NEL             ....  102
FINAL SINGLE POINT ENERGY      -652.829760329540
FINAL SINGLE POINT ENERGY      -652.854842995148
FINAL SINGLE POINT ENERGY      -652.861096338621
FINAL SINGLE POINT ENERGY      -652.863567845518
FINAL SINGLE POINT ENERGY      -652.864987884418
FINAL SINGLE POINT ENERGY      -652.865849850508
FINAL SINGLE POINT ENERGY      -652.866249135422
FINAL SINGLE POINT ENERGY      -652.866353971816
FINAL SINGLE POINT ENERGY      -652.866367488232
FINAL SINGLE POINT ENERGY      -652.866371140411
                    ***********************HURRAY********************

CARTESIAN COORDINATES (ANGSTROEM)
---------------------------------
  C    -21.080368   26.165722   46.219797
  C    -20.404111   27.505050   45.932428
  C    -20.469537   28.198025   47.313899
  C    -20.287430   27.025629   48.301268
  O    -20.587997   25.793597   47.517772
  H    -20.837915   25.355550   45.528106
  H    -19.365102   27.327569   45.630956
  H    -20.910768   28.066242   45.144111
  H    -19.700972   28.966996   47.435327
  H    -21.449850   28.666178   47.444599
  H    -20.965819   27.065317   49.156469
  H    -19.258894   26.921484   48.657336
  C    -23.346598   25.501067   45.401050
  H    -24.323988   25.986586   45.369954
  H    -22.934367   25.484972   44.384789
  O    -22.529639   26.360873   46.272026
  C    -23.451690   24.066737   45.938877
  C    -24.164789   23.942197   47.297194
  C    -25.661743   24.032759   46.876585
  C    -25.685919   23.312470   45.512580
  O    -24.273991   23.274777   45.026413
  H    -22.463412   23.597298   45.954713
  H    -23.959466   22.947437   47.710320
  O    -23.806842   24.914263   48.298406
  H    -26.318742   23.565509   47.614899
  H    -25.943076   25.088058   46.796677
  H    -26.300460   23.820435   44.762364
  H    -26.013997   22.272060   45.590463
  H    -23.244517   25.615143   47.895620

 Multiplicity           Mult            ....    1
 Number of Electrons    NEL             ....  102
 Basis Dimension        Dim             ....  149

ORBITAL ENERGIES
----------------

  NO   OCC          E(Eh)            E(eV)
   0   2.0000     -19.162788      -521.4460
   1   2.0000     -19.150702      -521.1171
   2   2.0000     -19.140098      -520.8286
   3   2.0000     -19.110211      -520.0153
   4   2.0000     -10.291377      -280.0426
   5   2.0000     -10.239364      -278.6273
   6   2.0000     -10.233258      -278.4611
   7   2.0000     -10.231788      -278.4211
   8   2.0000     -10.228631      -278.3352
   9   2.0000     -10.225950      -278.2623
  10   2.0000     -10.193427      -277.3772
  11   2.0000     -10.192165      -277.3429
  12   2.0000     -10.177644      -276.9478
  13   2.0000      -1.065136       -28.9838
  14   2.0000      -1.024599       -27.8807
  15   2.0000      -1.006524       -27.3889
  16   2.0000      -0.990062       -26.9410
  17   2.0000      -0.794837       -21.6286
  18   2.0000      -0.770715       -20.9722
  19   2.0000      -0.765462       -20.8293
  20   2.0000      -0.738029       -20.0828
  21   2.0000      -0.678942       -18.4749
  22   2.0000      -0.607466       -16.5300
  23   2.0000      -0.604143       -16.4396
  24   2.0000      -0.593862       -16.1598
  25   2.0000      -0.577142       -15.7048
  26   2.0000      -0.527453       -14.3527
  27   2.0000      -0.522498       -14.2179
  28   2.0000      -0.496047       -13.4981
  29   2.0000      -0.487318       -13.2606
  30   2.0000      -0.469112       -12.7652
  31   2.0000      -0.456385       -12.4189
  32   2.0000      -0.451980       -12.2990
  33   2.0000      -0.433783       -11.8038
  34   2.0000      -0.425391       -11.5755
  35   2.0000      -0.411669       -11.2021
  36   2.0000      -0.407947       -11.1008
  37   2.0000      -0.384803       -10.4710
  38   2.0000      -0.381455       -10.3799
  39   2.0000      -0.368009       -10.0140
  40   2.0000      -0.364070        -9.9069
  41   2.0000      -0.360400        -9.8070
  42   2.0000      -0.347513        -9.4563
  43   2.0000      -0.338440        -9.2094
  44   2.0000      -0.329569        -8.9680
  45   2.0000      -0.320611        -8.7243
  46   2.0000      -0.292077        -7.9478
  47   2.0000      -0.276110        -7.5133
  48   2.0000      -0.266117        -7.2414
  49   2.0000      -0.242196        -6.5905
  50   2.0000      -0.239100        -6.5062
  51   0.0000       0.057754         1.5716
  52   0.0000       0.081648         2.2218
  53   0.0000       0.093243         2.5373
  54   0.0000       0.096691         2.6311
  55   0.0000       0.103456         2.8152

MULLIKEN ATOMIC CHARGES
-----------------------
   0 C :    0.279235
   1 C :   -0.251134
   2 C :   -0.303467
   3 C :   -0.011297
   4 O :   -0.503325
   5 H :    0.152964
   6 H :    0.148541
   7 H :    0.151704
   8 H :    0.146592
   9 H :    0.165640
  10 H :    0.162381
  11 H :    0.148365
  12 C :   -0.047578
  13 H :    0.164591
  14 H :    0.155201
  15 O :   -0.535169
  16 C :    0.046574
  17 C :    0.124815
  18 C :   -0.301763
  19 C :   -0.025314
  20 O :   -0.521664
  21 H :    0.162142
  22 H :    0.145700
  23 O :   -0.639362
  24 H :    0.153035
  25 H :    0.147215
  26 H :    0.142071
  27 H :    0.150957
  28 H :    0.392351
Sum of atomic charges:   -0.0000000

LOEWDIN ATOMIC CHARGES
----------------------
   0 C :    0.171513
   1 C :   -0.218138
   2 C :   -0.216837
   3 C :   -0.027383
   4 O :   -0.313395
   5 H :    0.104565
   6 H :    0.115501
   7 H :    0.121237
   8 H :    0.116830
   9 H :    0.120680
  10 H :    0.112670
  11 H :    0.106259
  12 C :   -0.049216
  13 H :    0.117888
  14 H :    0.108048
  15 O :   -0.336920
  16 C :    0.004488
  17 C :    0.043939
  18 C :   -0.236675
  19 C :   -0.033792
  20 O :   -0.324866
  21 H :    0.113731
  22 H :    0.104304
  23 O :   -0.431874
  24 H :    0.122035
  25 H :    0.111978
  26 H :    0.101574
  27 H :    0.106681
  28 H :    0.285175

  Mayer bond orders larger than 0.100000
B(  0-C ,  1-C ) :   0.9443 B(  0-C ,  4-O ) :   0.9352 B(  0-C ,  5-H ) :   0.9175
B(  0-C , 15-O ) :   0.8011 B(  1-C ,  2-C ) :   0.9542 B(  1-C ,  6-H ) :   0.9360
B(  1-C ,  7-H ) :   0.9375 B(  2-C ,  3-C ) :   0.9533 B(  2-C ,  8-H ) :   0.9446
B(  2-C ,  9-H ) :   0.9432 B(  3-C ,  4-O ) :   0.8266 B(  3-C , 10-H ) :   0.9332
B(  3-C , 11-H ) :   0.9399 B( 12-C , 13-H ) :   0.9369 B( 12-C , 14-H ) :   0.9264
B( 12-C , 15-O ) :   0.8108 B( 12-C , 16-C ) :   0.8829 B( 16-C , 17-C ) :   0.9128
B( 16-C , 20-O ) :   0.8487 B( 16-C , 21-H ) :   0.9267 B( 17-C , 18-C ) :   0.9020
B( 17-C , 22-H ) :   0.9298 B( 17-C , 23-O ) :   0.9354 B( 18-C , 19-C ) :   0.9418
B( 18-C , 24-H ) :   0.9439 B( 18-C , 25-H ) :   0.9427 B( 19-C , 20-O ) :   0.8300
B( 19-C , 26-H ) :   0.9340 B( 19-C , 27-H ) :   0.9382 B( 23-O , 28-H ) :   0.7228

FINAL SINGLE POINT ENERGY      -652.866371743859

DIPOLE MOMENT
-------------
                                X             Y             Z
Electronic contribution:      0.27882      -3.24576       0.08328
Nuclear contribution   :      0.06849       4.21263      -0.77046
                        -----------------------------------------
Total Dipole Moment    :      0.34730       0.96687      -0.68718
                        -----------------------------------------
Magnitude (a.u.)       :      1.23599
Magnitude (Debye)      :      3.14164

Rotational constants in cm-1:     0.062420     0.014068     0.012819
Rotational constants in MHz :  1871.300579   421.753375   384.308704

                             ****ORCA TERMINATED NORMALLY****
TOTAL RUN TIME: 0 days 0 hours 55 minutes 50 seconds 438 msec
