                         Program Version 4.2.0 -  RELEASE  -
|  1> # Test redundant internal optimization
|  2> #
|  3> ! RKS B3LYP  Opt TightSCF SmallPrint
|  4>
|  5> %basis
|  6>         Basis "6-31G"
|  7> end
|  8>
|  9> %geom
| 10> Constraints
| 11> { D 4  0  15  12  210.0   C } # D for Dihedral angle
| 12> { D 0  15  12  16  45.0   C } # D for Dihedral angle
| 13> { D 0  4  3  2   C } # D for Dihedral angle
| 14> { D 4  3  2  1   C } # D for Dihedral angle
| 15> { D 3  2  1  0   C } # D for Dihedral angle
| 16> { D 2  1  0  4   C } # D for Dihedral angle
| 17> { D 1  0  4  3   C } # D for Dihedral angle
| 18> { D 16  20  19  18   C } # D for Dihedral angle
| 19> { D 20  19  18  17   C } # D for Dihedral angle
| 20> { D 19  18  17  16   C } # D for Dihedral angle
| 21> { D 18  17  16  20   C } # D for Dihedral angle
| 22> { D 17  16  20  19   C } # D for Dihedral angle
| 23> { D 15  12  16  20   C } # D for Dihedral angle
| 24> end
| 25> end
| 26>
| 27>
| 28> #%pal
| 29> #nprocs 8
| 30> #end
| 31>
| 32> * xyz 0 1
| 33> C  -21.048   26.222   46.251
| 34> C  -20.361   27.558   45.944
| 35> C  -20.329   28.222   47.341
| 36> C  -20.110   27.022   48.296
| 37> O  -20.473   25.807   47.535
| 38> H  -20.833   25.428   45.533
| 39> H  -19.344   27.382   45.576
| 40> H  -20.898   28.157   45.201
| 41> H  -19.543   28.978   47.434
| 42> H  -21.289   28.710   47.548
| 43> H  -20.733   27.082   49.195
| 44> H  -19.064   26.913   48.597
| 45> C  -23.389   26.110   45.076
| 46> H  -24.453   26.004   45.324
| 47> H  -23.284   26.944   44.370
| 48> O  -22.586   26.394   46.375
| 49> C  -22.924   24.816   44.353
| 50> C  -23.195   23.573   45.208
| 51> C  -24.707   23.349   44.966
| 52> C  -24.894   23.779   43.489
| 53> O  -23.714   24.597   43.137
| 54> H  -21.884   24.934   44.043
| 55> O  -22.370   22.370   44.675
| 56> H  -22.950   23.716   46.266
| 57> H  -25.016   22.314   45.142
| 58> H  -25.293   23.992   45.633
| 59> H  -25.801   24.373   43.337
| 60> H  -24.911   22.926   42.806
| 61> H  -22.599   22.207   43.615
| 62> *
| 63>
| 64>                          ****END OF INPUT****
 Total Charge           Charge          ....    0
 Multiplicity           Mult            ....    1
 Number of Electrons    NEL             ....  102
FINAL SINGLE POINT ENERGY      -652.832172689064
FINAL SINGLE POINT ENERGY      -652.854191107810
FINAL SINGLE POINT ENERGY      -652.858013737374
FINAL SINGLE POINT ENERGY      -652.858595791673
FINAL SINGLE POINT ENERGY      -652.858690841782
FINAL SINGLE POINT ENERGY      -652.858701798154
                    ***********************HURRAY********************

CARTESIAN COORDINATES (ANGSTROEM)
---------------------------------
  C    -20.991665   26.190150   46.215740
  C    -20.293603   27.519916   45.937517
  C    -20.409655   28.234057   47.304994
  C    -20.277281   27.073533   48.313520
  O    -20.554886   25.834746   47.538112
  H    -20.711941   25.365876   45.558704
  H    -19.244104   27.335565   45.678446
  H    -20.759898   28.079545   45.121344
  H    -19.641392   29.000199   47.445955
  H    -21.392366   28.706734   47.389692
  H    -20.991117   27.135219   49.138708
  H    -19.264741   26.969613   48.714617
  C    -23.242785   26.089500   45.077553
  H    -24.269744   26.069899   45.450969
  H    -23.165699   26.913097   44.352579
  O    -22.436770   26.369198   46.258695
  C    -22.913694   24.788331   44.333865
  C    -23.141253   23.496094   45.131008
  C    -24.676194   23.324380   45.014301
  C    -24.989011   23.853870   43.592037
  O    -23.817274   24.671004   43.180525
  H    -21.904122   24.813886   43.915708
  O    -22.417687   22.385923   44.531633
  H    -22.789412   23.554273   46.160689
  H    -24.957843   22.277280   45.150381
  H    -25.183745   23.916366   45.782509
  H    -25.887053   24.477881   43.556536
  H    -25.092838   23.050692   42.855732
  H    -22.577227   22.382174   43.563932

 Multiplicity           Mult            ....    1
 Number of Electrons    NEL             ....  102
 Basis Dimension        Dim             ....  149

ORBITAL ENERGIES
----------------

  NO   OCC          E(Eh)            E(eV)
   0   2.0000     -19.149291      -521.0787
   1   2.0000     -19.141377      -520.8633
   2   2.0000     -19.138589      -520.7875
   3   2.0000     -19.137974      -520.7708
   4   2.0000     -10.279127      -279.7093
   5   2.0000     -10.239398      -278.6282
   6   2.0000     -10.237758      -278.5836
   7   2.0000     -10.235235      -278.5149
   8   2.0000     -10.233630      -278.4712
   9   2.0000     -10.223186      -278.1870
  10   2.0000     -10.190355      -277.2937
  11   2.0000     -10.185338      -277.1571
  12   2.0000     -10.184504      -277.1344
  13   2.0000      -1.051592       -28.6153
  14   2.0000      -1.038817       -28.2676
  15   2.0000      -1.007507       -27.4157
  16   2.0000      -0.992652       -27.0114
  17   2.0000      -0.786640       -21.4056
  18   2.0000      -0.780820       -21.2472
  19   2.0000      -0.768129       -20.9018
  20   2.0000      -0.734892       -19.9974
  21   2.0000      -0.677235       -18.4285
  22   2.0000      -0.609600       -16.5881
  23   2.0000      -0.604713       -16.4551
  24   2.0000      -0.597715       -16.2647
  25   2.0000      -0.570316       -15.5191
  26   2.0000      -0.525140       -14.2898
  27   2.0000      -0.519606       -14.1392
  28   2.0000      -0.497902       -13.5486
  29   2.0000      -0.485501       -13.2112
  30   2.0000      -0.470426       -12.8009
  31   2.0000      -0.461914       -12.5693
  32   2.0000      -0.453768       -12.3477
  33   2.0000      -0.434183       -11.8147
  34   2.0000      -0.424075       -11.5397
  35   2.0000      -0.415630       -11.3099
  36   2.0000      -0.401683       -10.9304
  37   2.0000      -0.395385       -10.7590
  38   2.0000      -0.374356       -10.1867
  39   2.0000      -0.369401       -10.0519
  40   2.0000      -0.366216        -9.9652
  41   2.0000      -0.355986        -9.6869
  42   2.0000      -0.352868        -9.6020
  43   2.0000      -0.334344        -9.0980
  44   2.0000      -0.312552        -8.5050
  45   2.0000      -0.310799        -8.4573
  46   2.0000      -0.308482        -8.3942
  47   2.0000      -0.270820        -7.3694
  48   2.0000      -0.263817        -7.1788
  49   2.0000      -0.256392        -6.9768
  50   2.0000      -0.240755        -6.5513
  51   0.0000       0.061361         1.6697
  52   0.0000       0.073328         1.9954
  53   0.0000       0.092663         2.5215
  54   0.0000       0.094701         2.5769
  55   0.0000       0.099479         2.7070

MULLIKEN ATOMIC CHARGES
-----------------------
   0 C :    0.279315
   1 C :   -0.259781
   2 C :   -0.298053
   3 C :   -0.002038
   4 O :   -0.502852
   5 H :    0.153327
   6 H :    0.144594
   7 H :    0.143681
   8 H :    0.141267
   9 H :    0.162203
  10 H :    0.153178
  11 H :    0.141764
  12 C :   -0.000388
  13 H :    0.151847
  14 H :    0.143061
  15 O :   -0.520136
  16 C :    0.029028
  17 C :    0.085913
  18 C :   -0.300417
  19 C :   -0.037666
  20 O :   -0.527816
  21 H :    0.159909
  22 O :   -0.600738
  23 H :    0.184695
  24 H :    0.162993
  25 H :    0.153587
  26 H :    0.148525
  27 H :    0.150094
  28 H :    0.360904
Sum of atomic charges:   -0.0000000

LOEWDIN ATOMIC CHARGES
----------------------
   0 C :    0.174027
   1 C :   -0.226166
   2 C :   -0.216270
   3 C :   -0.025632
   4 O :   -0.307747
   5 H :    0.101839
   6 H :    0.113491
   7 H :    0.115612
   8 H :    0.113964
   9 H :    0.119221
  10 H :    0.108753
  11 H :    0.102384
  12 C :   -0.041228
  13 H :    0.113468
  14 H :    0.099872
  15 O :   -0.334564
  16 C :   -0.000988
  17 C :    0.035287
  18 C :   -0.239940
  19 C :   -0.039951
  20 O :   -0.329005
  21 H :    0.110400
  22 O :   -0.412916
  23 H :    0.130402
  24 H :    0.127548
  25 H :    0.118051
  26 H :    0.105239
  27 H :    0.104063
  28 H :    0.280785

  Mayer bond orders larger than 0.100000
B(  0-C ,  1-C ) :   0.9336 B(  0-C ,  4-O ) :   0.9313 B(  0-C ,  5-H ) :   0.9116
B(  0-C , 15-O ) :   0.8296 B(  1-C ,  2-C ) :   0.9539 B(  1-C ,  6-H ) :   0.9348
B(  1-C ,  7-H ) :   0.9381 B(  2-C ,  3-C ) :   0.9553 B(  2-C ,  8-H ) :   0.9451
B(  2-C ,  9-H ) :   0.9439 B(  3-C ,  4-O ) :   0.8363 B(  3-C , 10-H ) :   0.9347
B(  3-C , 11-H ) :   0.9397 B( 12-C , 13-H ) :   0.9380 B( 12-C , 14-H ) :   0.9158
B( 12-C , 15-O ) :   0.8458 B( 12-C , 16-C ) :   0.8814 B( 16-C , 17-C ) :   0.9023
B( 16-C , 20-O ) :   0.8323 B( 16-C , 21-H ) :   0.9235 B( 17-C , 18-C ) :   0.9126
B( 17-C , 22-O ) :   0.8889 B( 17-C , 23-H ) :   0.9219 B( 18-C , 19-C ) :   0.9433
B( 18-C , 24-H ) :   0.9375 B( 18-C , 25-H ) :   0.9332 B( 19-C , 20-O ) :   0.8418
B( 19-C , 26-H ) :   0.9351 B( 19-C , 27-H ) :   0.9370 B( 22-O , 28-H ) :   0.7971

FINAL SINGLE POINT ENERGY      -652.858702829076

DIPOLE MOMENT
-------------
                                X             Y             Z
Electronic contribution:      0.25037      -3.45641      -1.15186
Nuclear contribution   :     -0.62615       4.19573       0.83042
                        -----------------------------------------
Total Dipole Moment    :     -0.37578       0.73932      -0.32144
                        -----------------------------------------
Magnitude (a.u.)       :      0.88945
Magnitude (Debye)      :      2.26081

Rotational constants in cm-1:     0.060680     0.012752     0.011903
Rotational constants in MHz :  1819.150736   382.308064   356.842257

                             ****ORCA TERMINATED NORMALLY****
TOTAL RUN TIME: 0 days 1 hours 25 minutes 35 seconds 189 msec
