                         Program Version 4.2.0 -  RELEASE  -
|  1> # Test redundant internal optimization
|  2> #
|  3> ! RKS B3LYP  Opt TightSCF SmallPrint
|  4>
|  5> %basis
|  6>         Basis "6-31G"
|  7> end
|  8>
|  9> %geom
| 10> Constraints
| 11> { D 4  0  15  12  300.0   C } # D for Dihedral angle
| 12> { D 0  15  12  16  195.0   C } # D for Dihedral angle
| 13> { D 0  4  3  2   C } # D for Dihedral angle
| 14> { D 4  3  2  1   C } # D for Dihedral angle
| 15> { D 3  2  1  0   C } # D for Dihedral angle
| 16> { D 2  1  0  4   C } # D for Dihedral angle
| 17> { D 1  0  4  3   C } # D for Dihedral angle
| 18> { D 16  20  19  18   C } # D for Dihedral angle
| 19> { D 20  19  18  17   C } # D for Dihedral angle
| 20> { D 19  18  17  16   C } # D for Dihedral angle
| 21> { D 18  17  16  20   C } # D for Dihedral angle
| 22> { D 17  16  20  19   C } # D for Dihedral angle
| 23> { D 15  12  16  20   C } # D for Dihedral angle
| 24> end
| 25> end
| 26>
| 27>
| 28> #%pal
| 29> #nprocs 8
| 30> #end
| 31>
| 32> * xyz 0 1
| 33> C  -21.048   26.222   46.251
| 34> C  -20.361   27.558   45.944
| 35> C  -20.329   28.222   47.341
| 36> C  -20.110   27.022   48.296
| 37> O  -20.473   25.807   47.535
| 38> H  -20.833   25.428   45.533
| 39> H  -19.344   27.382   45.576
| 40> H  -20.898   28.157   45.201
| 41> H  -19.543   28.978   47.434
| 42> H  -21.289   28.710   47.548
| 43> H  -20.733   27.082   49.195
| 44> H  -19.064   26.913   48.597
| 45> C  -23.362   25.116   46.798
| 46> H  -22.984   24.258   46.227
| 47> H  -23.211   24.911   47.866
| 48> O  -22.586   26.394   46.375
| 49> C  -24.891   25.232   46.550
| 50> C  -25.476   26.467   47.246
| 51> C  -25.076   27.597   46.267
| 52> C  -25.180   26.915   44.880
| 53> O  -25.164   25.456   45.127
| 54> H  -25.370   24.291   46.823
| 55> O  -27.021   26.344   47.338
| 56> H  -25.080   26.620   48.256
| 57> H  -25.721   28.478   46.349
| 58> H  -24.045   27.918   46.463
| 59> H  -24.347   27.177   44.220
| 60> H  -26.121   27.145   44.371
| 61> H  -27.439   26.191   46.337
| 62> *
| 63>
| 64>                          ****END OF INPUT****
 Total Charge           Charge          ....    0
 Multiplicity           Mult            ....    1
 Number of Electrons    NEL             ....  102
FINAL SINGLE POINT ENERGY      -652.840961325995
FINAL SINGLE POINT ENERGY      -652.864851216701
FINAL SINGLE POINT ENERGY      -652.869137958556
FINAL SINGLE POINT ENERGY      -652.870214028309
FINAL SINGLE POINT ENERGY      -652.870335885820
FINAL SINGLE POINT ENERGY      -652.870351533131
                    ***********************HURRAY********************

CARTESIAN COORDINATES (ANGSTROEM)
---------------------------------
  C    -21.095628   26.141226   46.277378
  C    -20.446665   27.485812   45.948940
  C    -20.410909   28.165878   47.335971
  C    -20.151233   26.986753   48.300381
  O    -20.502247   25.757172   47.541163
  H    -20.885316   25.319959   45.583780
  H    -19.434662   27.311049   45.567565
  H    -21.014553   28.047833   45.204482
  H    -19.636455   28.935974   47.407051
  H    -21.378626   28.631400   47.545019
  H    -20.760852   27.029371   49.206548
  H    -19.098033   26.889920   48.579308
  C    -23.266695   25.167435   46.808187
  H    -22.911133   24.292551   46.246153
  H    -23.092062   24.983554   47.875162
  O    -22.519719   26.344088   46.375236
  C    -24.755981   25.344209   46.533684
  C    -25.453272   26.529553   47.217904
  C    -25.138642   27.690695   46.237923
  C    -25.168133   26.995515   44.853808
  O    -25.030569   25.542533   45.109712
  H    -25.249842   24.408306   46.821869
  O    -26.882785   26.281276   47.340388
  H    -25.106516   26.715377   48.234870
  H    -25.880122   28.489059   46.331528
  H    -24.142940   28.083119   46.448445
  H    -24.344905   27.316929   44.210333
  H    -26.115529   27.140168   44.323068
  H    -27.224975   25.964286   46.478144

 Multiplicity           Mult            ....    1
 Number of Electrons    NEL             ....  102
 Basis Dimension        Dim             ....  149

ORBITAL ENERGIES
----------------

  NO   OCC          E(Eh)            E(eV)
   0   2.0000     -19.151023      -521.1258
   1   2.0000     -19.145524      -520.9762
   2   2.0000     -19.136424      -520.7286
   3   2.0000     -19.133070      -520.6373
   4   2.0000     -10.282581      -279.8033
   5   2.0000     -10.235011      -278.5088
   6   2.0000     -10.232563      -278.4422
   7   2.0000     -10.230046      -278.3737
   8   2.0000     -10.229569      -278.3607
   9   2.0000     -10.221932      -278.1529
  10   2.0000     -10.190437      -277.2959
  11   2.0000     -10.190194      -277.2893
  12   2.0000     -10.175219      -276.8818
  13   2.0000      -1.060579       -28.8598
  14   2.0000      -1.030920       -28.0528
  15   2.0000      -1.003025       -27.2937
  16   2.0000      -0.995207       -27.0810
  17   2.0000      -0.794114       -21.6089
  18   2.0000      -0.775236       -21.0953
  19   2.0000      -0.762992       -20.7621
  20   2.0000      -0.732945       -19.9445
  21   2.0000      -0.672217       -18.2919
  22   2.0000      -0.604286       -16.4434
  23   2.0000      -0.596866       -16.2415
  24   2.0000      -0.595328       -16.1997
  25   2.0000      -0.576404       -15.6847
  26   2.0000      -0.525762       -14.3067
  27   2.0000      -0.507810       -13.8182
  28   2.0000      -0.497741       -13.5442
  29   2.0000      -0.487556       -13.2671
  30   2.0000      -0.469932       -12.7875
  31   2.0000      -0.463767       -12.6197
  32   2.0000      -0.447807       -12.1855
  33   2.0000      -0.430450       -11.7131
  34   2.0000      -0.424984       -11.5644
  35   2.0000      -0.409085       -11.1318
  36   2.0000      -0.403079       -10.9683
  37   2.0000      -0.385612       -10.4930
  38   2.0000      -0.380727       -10.3601
  39   2.0000      -0.364017        -9.9054
  40   2.0000      -0.362083        -9.8528
  41   2.0000      -0.356172        -9.6919
  42   2.0000      -0.348952        -9.4955
  43   2.0000      -0.339741        -9.2448
  44   2.0000      -0.321178        -8.7397
  45   2.0000      -0.305341        -8.3088
  46   2.0000      -0.299445        -8.1483
  47   2.0000      -0.273165        -7.4332
  48   2.0000      -0.263597        -7.1728
  49   2.0000      -0.258955        -7.0465
  50   2.0000      -0.241686        -6.5766
  51   0.0000       0.066501         1.8096
  52   0.0000       0.083402         2.2695
  53   0.0000       0.093592         2.5468
  54   0.0000       0.103893         2.8271
  55   0.0000       0.109511         2.9799

MULLIKEN ATOMIC CHARGES
-----------------------
   0 C :    0.295782
   1 C :   -0.264542
   2 C :   -0.302005
   3 C :   -0.005799
   4 O :   -0.514687
   5 H :    0.150396
   6 H :    0.148873
   7 H :    0.155681
   8 H :    0.144382
   9 H :    0.159459
  10 H :    0.146809
  11 H :    0.146070
  12 C :    0.014945
  13 H :    0.141077
  14 H :    0.146498
  15 O :   -0.532178
  16 C :    0.059379
  17 C :    0.080660
  18 C :   -0.288838
  19 C :   -0.019458
  20 O :   -0.527896
  21 H :    0.155839
  22 O :   -0.604280
  23 H :    0.148387
  24 H :    0.147896
  25 H :    0.171229
  26 H :    0.149112
  27 H :    0.134712
  28 H :    0.362498
Sum of atomic charges:    0.0000000

LOEWDIN ATOMIC CHARGES
----------------------
   0 C :    0.173863
   1 C :   -0.213947
   2 C :   -0.216736
   3 C :   -0.028411
   4 O :   -0.329556
   5 H :    0.099003
   6 H :    0.116463
   7 H :    0.123347
   8 H :    0.114974
   9 H :    0.116315
  10 H :    0.105051
  11 H :    0.104513
  12 C :   -0.036272
  13 H :    0.104751
  14 H :    0.105757
  15 O :   -0.328933
  16 C :    0.014217
  17 C :    0.039980
  18 C :   -0.242137
  19 C :   -0.033513
  20 O :   -0.331209
  21 H :    0.116448
  22 O :   -0.417939
  23 H :    0.114896
  24 H :    0.118157
  25 H :    0.127263
  26 H :    0.106354
  27 H :    0.095628
  28 H :    0.281671

  Mayer bond orders larger than 0.100000
B(  0-C ,  1-C ) :   0.9518 B(  0-C ,  4-O ) :   0.8970 B(  0-C ,  5-H ) :   0.9173
B(  0-C , 15-O ) :   0.8552 B(  1-C ,  2-C ) :   0.9550 B(  1-C ,  6-H ) :   0.9393
B(  1-C ,  7-H ) :   0.9362 B(  2-C ,  3-C ) :   0.9550 B(  2-C ,  8-H ) :   0.9449
B(  2-C ,  9-H ) :   0.9443 B(  3-C ,  4-O ) :   0.8365 B(  3-C , 10-H ) :   0.9357
B(  3-C , 11-H ) :   0.9403 B( 12-C , 13-H ) :   0.9172 B( 12-C , 14-H ) :   0.9109
B( 12-C , 15-O ) :   0.8281 B( 12-C , 16-C ) :   0.9091 B( 16-C , 17-C ) :   0.9094
B( 16-C , 20-O ) :   0.8692 B( 16-C , 21-H ) :   0.9228 B( 17-C , 18-C ) :   0.9234
B( 17-C , 22-O ) :   0.8902 B( 17-C , 23-H ) :   0.9362 B( 18-C , 19-C ) :   0.9464
B( 18-C , 24-H ) :   0.9373 B( 18-C , 25-H ) :   0.9192 B( 19-C , 20-O ) :   0.8402
B( 19-C , 26-H ) :   0.9341 B( 19-C , 27-H ) :   0.9368 B( 22-O , 28-H ) :   0.7961

FINAL SINGLE POINT ENERGY      -652.870351628611

DIPOLE MOMENT
-------------
                                X             Y             Z
Electronic contribution:     -3.26359      -4.67511      -0.47020
Nuclear contribution   :      4.12426       5.46365       0.32991
                        -----------------------------------------
Total Dipole Moment    :      0.86067       0.78854      -0.14030
                        -----------------------------------------
Magnitude (a.u.)       :      1.17568
Magnitude (Debye)      :      2.98835

Rotational constants in cm-1:     0.053939     0.013865     0.013688
Rotational constants in MHz :  1617.038876   415.665209   410.353170

                             ****ORCA TERMINATED NORMALLY****
TOTAL RUN TIME: 0 days 0 hours 20 minutes 14 seconds 648 msec
