                         Program Version 4.2.1 -  RELEASE  -
|  1> # Test redundant internal optimization
|  2> #
|  3> ! RKS B3LYP  Opt TightSCF SmallPrint
|  4>
|  5> %basis
|  6>         Basis "6-31G"
|  7> end
|  8>
|  9> %geom
| 10> Constraints
| 11> { D 4  0  19  14  300.0   C } # D for Dihedral angle
| 12> { D 0  19  14  12  150.0   C } # D for Dihedral angle
| 13> { D 0  4  3  2   C } # D for Dihedral angle
| 14> { D 4  3  2  1   C } # D for Dihedral angle
| 15> { D 3  2  1  0   C } # D for Dihedral angle
| 16> { D 2  1  0  4   C } # D for Dihedral angle
| 17> { D 1  0  4  3   C } # D for Dihedral angle
| 18> { D 14  15  16  17   C } # D for Dihedral angle
| 19> { D 15  16  17  12   C } # D for Dihedral angle
| 20> { D 16  17  12  14   C } # D for Dihedral angle
| 21> { D 17  12  14  15   C } # D for Dihedral angle
| 22> { D 12  14  15  16   C } # D for Dihedral angle
| 23> end
| 24> end
| 25>
| 26>
| 27> #%pal
| 28> #nprocs 8
| 29> #end
| 30>
| 31> * xyz 0 1
| 32> C  -21.048   26.222   46.251
| 33> C  -20.361   27.558   45.944
| 34> C  -20.329   28.222   47.341
| 35> C  -20.110   27.022   48.296
| 36> O  -20.473   25.807   47.535
| 37> H  -20.833   25.428   45.533
| 38> H  -19.344   27.382   45.576
| 39> H  -20.898   28.157   45.201
| 40> H  -19.543   28.978   47.434
| 41> H  -21.289   28.710   47.548
| 42> H  -20.733   27.082   49.195
| 43> H  -19.064   26.913   48.597
| 44> C  -24.432   25.555   47.549
| 45> H  -24.824   24.688   48.102
| 46> C  -23.171   25.189   46.758
| 47> C  -23.771   24.476   45.523
| 48> C  -25.086   25.255   45.271
| 49> O  -25.390   25.983   46.523
| 50> H  -24.307   26.392   48.238
| 51> O  -22.472   26.381   46.366
| 52> H  -22.480   24.552   47.321
| 53> H  -23.103   24.494   44.656
| 54> H  -23.984   23.426   45.760
| 55> H  -25.926   24.595   45.027
| 56> H  -24.983   26.005   44.480
| 57> *
| 58>
| 59>                          ****END OF INPUT****
 Total Charge           Charge          ....    0
 Multiplicity           Mult            ....    1
 Number of Electrons    NEL             ....   86
FINAL SINGLE POINT ENERGY      -538.436635329989
FINAL SINGLE POINT ENERGY      -538.438439378966
FINAL SINGLE POINT ENERGY      -538.438774033693
FINAL SINGLE POINT ENERGY      -538.438793642327
FINAL SINGLE POINT ENERGY      -538.438801145784
                    ***********************HURRAY********************

CARTESIAN COORDINATES (ANGSTROEM)
---------------------------------
  C    -21.000369   26.190513   46.239683
  C    -20.404960   27.569385   45.953799
  C    -20.398487   28.206827   47.360902
  C    -20.093546   27.011096   48.290339
  O    -20.393642   25.790672   47.494168
  H    -20.753086   25.400842   45.522652
  H    -19.386675   27.450154   45.566969
  H    -21.000525   28.129546   45.230195
  H    -19.656842   29.005679   47.457832
  H    -21.386817   28.621693   47.577647
  H    -20.706488   27.002898   49.195224
  H    -19.037862   26.946655   48.569720
  C    -24.407274   25.602276   47.530816
  H    -24.830085   24.763041   48.103227
  C    -23.165322   25.157404   46.760014
  C    -23.790880   24.451261   45.541808
  C    -25.062656   25.286058   45.260454
  O    -25.335200   26.054249   46.493550
  H    -24.213505   26.446819   48.193324
  O    -22.429234   26.356153   46.350513
  H    -22.506073   24.515751   47.352464
  H    -23.106020   24.422386   44.688803
  H    -24.044419   23.418163   45.808223
  H    -25.931172   24.660477   45.025714
  H    -24.912861   26.012001   44.456962

 Multiplicity           Mult            ....    1
 Number of Electrons    NEL             ....   86
 Basis Dimension        Dim             ....  127

ORBITAL ENERGIES
----------------

  NO   OCC          E(Eh)            E(eV)
   0   2.0000     -19.142821      -520.9026
   1   2.0000     -19.142035      -520.8813
   2   2.0000     -19.124517      -520.4046
   3   2.0000     -10.278599      -279.6949
   4   2.0000     -10.234031      -278.4821
   5   2.0000     -10.226582      -278.2794
   6   2.0000     -10.218552      -278.0609
   7   2.0000     -10.217703      -278.0378
   8   2.0000     -10.184976      -277.1473
   9   2.0000     -10.184735      -277.1407
  10   2.0000     -10.184322      -277.1295
  11   2.0000      -1.055478       -28.7210
  12   2.0000      -1.011582       -27.5265
  13   2.0000      -0.988599       -26.9011
  14   2.0000      -0.792100       -21.5541
  15   2.0000      -0.774322       -21.0704
  16   2.0000      -0.739542       -20.1240
  17   2.0000      -0.719066       -19.5668
  18   2.0000      -0.608261       -16.5516
  19   2.0000      -0.598133       -16.2760
  20   2.0000      -0.594878       -16.1875
  21   2.0000      -0.570565       -15.5259
  22   2.0000      -0.522210       -14.2101
  23   2.0000      -0.500340       -13.6150
  24   2.0000      -0.484432       -13.1821
  25   2.0000      -0.476440       -12.9646
  26   2.0000      -0.454955       -12.3800
  27   2.0000      -0.434534       -11.8243
  28   2.0000      -0.427446       -11.6314
  29   2.0000      -0.416817       -11.3422
  30   2.0000      -0.404252       -11.0003
  31   2.0000      -0.381462       -10.3801
  32   2.0000      -0.371924       -10.1206
  33   2.0000      -0.365930        -9.9575
  34   2.0000      -0.357456        -9.7269
  35   2.0000      -0.354047        -9.6341
  36   2.0000      -0.342237        -9.3127
  37   2.0000      -0.331535        -9.0215
  38   2.0000      -0.300685        -8.1820
  39   2.0000      -0.293126        -7.9764
  40   2.0000      -0.267289        -7.2733
  41   2.0000      -0.255880        -6.9628
  42   2.0000      -0.230332        -6.2677
  43   0.0000       0.082026         2.2320
  44   0.0000       0.098912         2.6915
  45   0.0000       0.105035         2.8581
  46   0.0000       0.107872         2.9353
  47   0.0000       0.115953         3.1552

MULLIKEN ATOMIC CHARGES
-----------------------
   0 C :    0.284354
   1 C :   -0.261356
   2 C :   -0.298809
   3 C :   -0.005792
   4 O :   -0.515254
   5 H :    0.140970
   6 H :    0.143985
   7 H :    0.161028
   8 H :    0.141602
   9 H :    0.165889
  10 H :    0.145926
  11 H :    0.143977
  12 C :    0.006276
  13 H :    0.123383
  14 C :    0.052440
  15 C :   -0.299169
  16 C :    0.010946
  17 O :   -0.521045
  18 H :    0.160370
  19 O :   -0.513772
  20 H :    0.159943
  21 H :    0.149208
  22 H :    0.143193
  23 H :    0.131794
  24 H :    0.149914
Sum of atomic charges:   -0.0000000

LOEWDIN ATOMIC CHARGES
----------------------
   0 C :    0.171007
   1 C :   -0.213715
   2 C :   -0.215948
   3 C :   -0.028336
   4 O :   -0.332428
   5 H :    0.094091
   6 H :    0.113614
   7 H :    0.126400
   8 H :    0.113852
   9 H :    0.120880
  10 H :    0.104603
  11 H :    0.103413
  12 C :   -0.034385
  13 H :    0.091168
  14 C :    0.030892
  15 C :   -0.235174
  16 C :   -0.027049
  17 O :   -0.330452
  18 H :    0.119328
  19 O :   -0.321595
  20 H :    0.114117
  21 H :    0.119108
  22 H :    0.113020
  23 H :    0.096966
  24 H :    0.106623

  Mayer bond orders larger than 0.100000
B(  0-C ,  1-C ) :   0.9497 B(  0-C ,  4-O ) :   0.8964 B(  0-C ,  5-H ) :   0.9186
B(  0-C , 19-O ) :   0.8698 B(  1-C ,  2-C ) :   0.9557 B(  1-C ,  6-H ) :   0.9402
B(  1-C ,  7-H ) :   0.9353 B(  2-C ,  3-C ) :   0.9559 B(  2-C ,  8-H ) :   0.9450
B(  2-C ,  9-H ) :   0.9433 B(  3-C ,  4-O ) :   0.8338 B(  3-C , 10-H ) :   0.9360
B(  3-C , 11-H ) :   0.9405 B( 12-C , 13-H ) :   0.9155 B( 12-C , 14-C ) :   0.9365
B( 12-C , 17-O ) :   0.8710 B( 12-C , 18-H ) :   0.9320 B( 14-C , 15-C ) :   0.9383
B( 14-C , 19-O ) :   0.8200 B( 14-C , 20-H ) :   0.9107 B( 15-C , 16-C ) :   0.9447
B( 15-C , 21-H ) :   0.9406 B( 15-C , 22-H ) :   0.9375 B( 16-C , 17-O ) :   0.8594
B( 16-C , 23-H ) :   0.9336 B( 16-C , 24-H ) :   0.9368

FINAL SINGLE POINT ENERGY      -538.438801550893

DIPOLE MOMENT
-------------
                                X             Y             Z
Electronic contribution:     -1.40093      -0.86100       0.41217
Nuclear contribution   :      2.20312       0.64772      -0.54922
                        -----------------------------------------
Total Dipole Moment    :      0.80220      -0.21327      -0.13705
                        -----------------------------------------
Magnitude (a.u.)       :      0.84130
Magnitude (Debye)      :      2.13842

Rotational constants in cm-1:     0.082423     0.020197     0.019899
Rotational constants in MHz :  2470.988045   605.499511   596.561065

                             ****ORCA TERMINATED NORMALLY****
TOTAL RUN TIME: 0 days 0 hours 12 minutes 18 seconds 24 msec
