                         Program Version 4.2.0 -  RELEASE  -
|  1> # Test redundant internal optimization
|  2> #
|  3> ! RKS B3LYP  Opt TightSCF SmallPrint
|  4>
|  5> %basis
|  6>         Basis "6-31G"
|  7> end
|  8>
|  9> %geom
| 10> Constraints
| 11> { D 4  0  15  12  285.0   C } # D for Dihedral angle
| 12> { D 0  15  12  16  135.0   C } # D for Dihedral angle
| 13> { D 0  4  3  2   C } # D for Dihedral angle
| 14> { D 4  3  2  1   C } # D for Dihedral angle
| 15> { D 3  2  1  0   C } # D for Dihedral angle
| 16> { D 2  1  0  4   C } # D for Dihedral angle
| 17> { D 1  0  4  3   C } # D for Dihedral angle
| 18> { D 16  20  19  18   C } # D for Dihedral angle
| 19> { D 20  19  18  17   C } # D for Dihedral angle
| 20> { D 19  18  17  16   C } # D for Dihedral angle
| 21> { D 18  17  16  20   C } # D for Dihedral angle
| 22> { D 17  16  20  19   C } # D for Dihedral angle
| 23> { D 15  12  16  20   C } # D for Dihedral angle
| 24> end
| 25> end
| 26>
| 27>
| 28> #%pal
| 29> #nprocs 8
| 30> #end
| 31>
| 32> * xyz 0 1
| 33> C  -21.048   26.222   46.251
| 34> C  -20.361   27.558   45.944
| 35> C  -20.329   28.222   47.341
| 36> C  -20.110   27.022   48.296
| 37> O  -20.473   25.807   47.535
| 38> H  -20.833   25.428   45.533
| 39> H  -19.344   27.382   45.576
| 40> H  -20.898   28.157   45.201
| 41> H  -19.543   28.978   47.434
| 42> H  -21.289   28.710   47.548
| 43> H  -20.733   27.082   49.195
| 44> H  -19.064   26.913   48.597
| 45> C  -23.396   25.070   46.435
| 46> H  -23.885   24.901   45.468
| 47> H  -22.730   24.221   46.636
| 48> O  -22.586   26.394   46.375
| 49> C  -24.489   25.084   47.540
| 50> C  -25.189   23.725   47.648
| 51> C  -24.159   22.906   48.462
| 52> C  -23.558   23.957   49.428
| 53> O  -23.881   25.283   48.860
| 54> H  -25.162   25.927   47.366
| 55> O  -26.519   23.871   48.436
| 56> H  -25.412   23.278   46.673
| 57> H  -24.611   22.062   48.992
| 58> H  -23.384   22.507   47.796
| 59> H  -22.471   23.864   49.526
| 60> H  -24.009   23.914   50.424
| 61> H  -26.319   24.317   49.417
| 62> *
| 63>
| 64>                          ****END OF INPUT****
 Total Charge           Charge          ....    0
 Multiplicity           Mult            ....    1
 Number of Electrons    NEL             ....  102
FINAL SINGLE POINT ENERGY      -652.836574104454
FINAL SINGLE POINT ENERGY      -652.861151024975
FINAL SINGLE POINT ENERGY      -652.865358387157
FINAL SINGLE POINT ENERGY      -652.866124911254
FINAL SINGLE POINT ENERGY      -652.866231132204
FINAL SINGLE POINT ENERGY      -652.866243287036
FINAL SINGLE POINT ENERGY      -652.866245876378
                    ***********************HURRAY********************

CARTESIAN COORDINATES (ANGSTROEM)
---------------------------------
  C    -21.080128   26.138032   46.208724
  C    -20.535096   27.550360   45.998353
  C    -20.566300   28.118416   47.435144
  C    -20.224916   26.889187   48.305898
  O    -20.471138   25.702174   47.446854
  H    -20.820642   25.393022   45.450789
  H    -19.508120   27.490283   45.619599
  H    -21.142282   28.122441   45.293962
  H    -19.857130   28.939626   47.577338
  H    -21.572404   28.479814   47.663637
  H    -20.859587   26.808338   49.190601
  H    -19.171058   26.850606   48.597710
  C    -23.263609   25.030175   46.375100
  H    -23.775337   24.895287   45.411370
  H    -22.586507   24.184520   46.542695
  O    -22.510600   26.271802   46.344193
  C    -24.291213   25.118767   47.502563
  C    -25.112806   23.834604   47.684954
  C    -24.145464   22.958020   48.523740
  C    -23.432345   23.992452   49.430363
  O    -23.643840   25.318956   48.801678
  H    -24.931386   25.989717   47.337750
  O    -26.351128   24.104828   48.397806
  H    -25.417758   23.366065   46.747807
  H    -24.701053   22.204001   49.086682
  H    -23.432321   22.443686   47.869591
  H    -22.356572   23.813818   49.509872
  H    -23.861672   24.037950   50.436048
  H    -26.162591   24.715052   49.142181

 Multiplicity           Mult            ....    1
 Number of Electrons    NEL             ....  102
 Basis Dimension        Dim             ....  149

ORBITAL ENERGIES
----------------

  NO   OCC          E(Eh)            E(eV)
   0   2.0000     -19.139536      -520.8132
   1   2.0000     -19.138516      -520.7855
   2   2.0000     -19.137108      -520.7472
   3   2.0000     -19.133303      -520.6436
   4   2.0000     -10.275036      -279.5979
   5   2.0000     -10.241460      -278.6843
   6   2.0000     -10.231270      -278.4070
   7   2.0000     -10.229681      -278.3638
   8   2.0000     -10.226198      -278.2690
   9   2.0000     -10.216564      -278.0068
  10   2.0000     -10.187848      -277.2254
  11   2.0000     -10.180000      -277.0119
  12   2.0000     -10.177553      -276.9453
  13   2.0000      -1.050925       -28.5971
  14   2.0000      -1.033122       -28.1127
  15   2.0000      -1.003915       -27.3179
  16   2.0000      -0.988161       -26.8892
  17   2.0000      -0.787468       -21.4281
  18   2.0000      -0.778053       -21.1719
  19   2.0000      -0.763178       -20.7671
  20   2.0000      -0.725400       -19.7391
  21   2.0000      -0.670290       -18.2395
  22   2.0000      -0.602000       -16.3813
  23   2.0000      -0.592485       -16.1223
  24   2.0000      -0.587641       -15.9905
  25   2.0000      -0.582268       -15.8443
  26   2.0000      -0.524535       -14.2733
  27   2.0000      -0.509501       -13.8642
  28   2.0000      -0.487446       -13.2641
  29   2.0000      -0.482960       -13.1420
  30   2.0000      -0.476809       -12.9746
  31   2.0000      -0.455189       -12.3863
  32   2.0000      -0.449260       -12.2250
  33   2.0000      -0.433310       -11.7910
  34   2.0000      -0.423003       -11.5105
  35   2.0000      -0.401048       -10.9131
  36   2.0000      -0.397276       -10.8104
  37   2.0000      -0.391493       -10.6531
  38   2.0000      -0.373359       -10.1596
  39   2.0000      -0.370383       -10.0786
  40   2.0000      -0.353777        -9.6268
  41   2.0000      -0.349140        -9.5006
  42   2.0000      -0.341979        -9.3057
  43   2.0000      -0.328935        -8.9508
  44   2.0000      -0.323406        -8.8003
  45   2.0000      -0.305022        -8.3001
  46   2.0000      -0.295717        -8.0469
  47   2.0000      -0.270054        -7.3485
  48   2.0000      -0.266201        -7.2437
  49   2.0000      -0.246617        -6.7108
  50   2.0000      -0.239280        -6.5111
  51   0.0000       0.068273         1.8578
  52   0.0000       0.088517         2.4087
  53   0.0000       0.091368         2.4862
  54   0.0000       0.102956         2.8016
  55   0.0000       0.109649         2.9837

MULLIKEN ATOMIC CHARGES
-----------------------
   0 C :    0.279008
   1 C :   -0.259133
   2 C :   -0.297579
   3 C :   -0.001693
   4 O :   -0.513827
   5 H :    0.138846
   6 H :    0.141143
   7 H :    0.154341
   8 H :    0.136214
   9 H :    0.169305
  10 H :    0.162125
  11 H :    0.135242
  12 C :    0.001284
  13 H :    0.129962
  14 H :    0.142334
  15 O :   -0.511696
  16 C :    0.071545
  17 C :    0.075968
  18 C :   -0.294246
  19 C :   -0.033209
  20 O :   -0.512922
  21 H :    0.166719
  22 O :   -0.602145
  23 H :    0.149573
  24 H :    0.160477
  25 H :    0.143200
  26 H :    0.162188
  27 H :    0.142594
  28 H :    0.364380
Sum of atomic charges:   -0.0000000

LOEWDIN ATOMIC CHARGES
----------------------
   0 C :    0.172138
   1 C :   -0.215253
   2 C :   -0.214924
   3 C :   -0.026970
   4 O :   -0.331720
   5 H :    0.095215
   6 H :    0.111802
   7 H :    0.122769
   8 H :    0.111070
   9 H :    0.122801
  10 H :    0.113267
  11 H :    0.099131
  12 C :   -0.041878
  13 H :    0.098504
  14 H :    0.103797
  15 O :   -0.321046
  16 C :    0.016940
  17 C :    0.034138
  18 C :   -0.240325
  19 C :   -0.039972
  20 O :   -0.322877
  21 H :    0.119497
  22 O :   -0.414550
  23 H :    0.114156
  24 H :    0.125915
  25 H :    0.112438
  26 H :    0.112016
  27 H :    0.100825
  28 H :    0.283093

  Mayer bond orders larger than 0.100000
B(  0-C ,  1-C ) :   0.9522 B(  0-C ,  4-O ) :   0.9076 B(  0-C ,  5-H ) :   0.9203
B(  0-C , 15-O ) :   0.8651 B(  1-C ,  2-C ) :   0.9570 B(  1-C ,  6-H ) :   0.9410
B(  1-C ,  7-H ) :   0.9367 B(  2-C ,  3-C ) :   0.9575 B(  2-C ,  8-H ) :   0.9455
B(  2-C ,  9-H ) :   0.9423 B(  3-C ,  4-O ) :   0.8315 B(  3-C , 10-H ) :   0.9311
B(  3-C , 11-H ) :   0.9402 B( 12-C , 13-H ) :   0.9197 B( 12-C , 14-H ) :   0.9168
B( 12-C , 15-O ) :   0.8395 B( 12-C , 16-C ) :   0.8971 B( 16-C , 17-C ) :   0.8991
B( 16-C , 20-O ) :   0.8681 B( 16-C , 21-H ) :   0.9255 B( 17-C , 18-C ) :   0.9101
B( 17-C , 22-O ) :   0.8939 B( 17-C , 23-H ) :   0.9332 B( 18-C , 19-C ) :   0.9418
B( 18-C , 24-H ) :   0.9383 B( 18-C , 25-H ) :   0.9340 B( 19-C , 20-O ) :   0.8471
B( 19-C , 26-H ) :   0.9300 B( 19-C , 27-H ) :   0.9374 B( 22-O , 28-H ) :   0.7944

FINAL SINGLE POINT ENERGY      -652.866246074549

DIPOLE MOMENT
-------------
                                X             Y             Z
Electronic contribution:     -3.15111      -0.54215      -0.22922
Nuclear contribution   :      3.78092       0.40961       0.04667
                        -----------------------------------------
Total Dipole Moment    :      0.62981      -0.13254      -0.18255
                        -----------------------------------------
Magnitude (a.u.)       :      0.66899
Magnitude (Debye)      :      1.70045

Rotational constants in cm-1:     0.059486     0.014169     0.013221
Rotational constants in MHz :  1783.350457   424.770940   396.360371

                             ****ORCA TERMINATED NORMALLY****
TOTAL RUN TIME: 0 days 1 hours 4 minutes 25 seconds 658 msec
