                         Program Version 4.2.0 -  RELEASE  -
|  1> # Test redundant internal optimization
|  2> #
|  3> ! RKS B3LYP  Opt TightSCF SmallPrint
|  4>
|  5> %basis
|  6>         Basis "6-31G"
|  7> end
|  8>
|  9> %geom
| 10> Constraints
| 11> { D 4  0  15  12  225.0   C } # D for Dihedral angle
| 12> { D 0  15  12  16  0.0   C } # D for Dihedral angle
| 13> { D 0  4  3  2   C } # D for Dihedral angle
| 14> { D 4  3  2  1   C } # D for Dihedral angle
| 15> { D 3  2  1  0   C } # D for Dihedral angle
| 16> { D 2  1  0  4   C } # D for Dihedral angle
| 17> { D 1  0  4  3   C } # D for Dihedral angle
| 18> { D 16  20  19  18   C } # D for Dihedral angle
| 19> { D 20  19  18  17   C } # D for Dihedral angle
| 20> { D 19  18  17  16   C } # D for Dihedral angle
| 21> { D 18  17  16  20   C } # D for Dihedral angle
| 22> { D 17  16  20  19   C } # D for Dihedral angle
| 23> { D 15  12  16  20   C } # D for Dihedral angle
| 24> end
| 25> end
| 26>
| 27>
| 28> #%pal
| 29> #nprocs 8
| 30> #end
| 31>
| 32> * xyz 0 1
| 33> C  -21.048   26.222   46.251
| 34> C  -20.361   27.558   45.944
| 35> C  -20.329   28.222   47.341
| 36> C  -20.110   27.022   48.296
| 37> O  -20.473   25.807   47.535
| 38> H  -20.833   25.428   45.533
| 39> H  -19.344   27.382   45.576
| 40> H  -20.898   28.157   45.201
| 41> H  -19.543   28.978   47.434
| 42> H  -21.289   28.710   47.548
| 43> H  -20.733   27.082   49.195
| 44> H  -19.064   26.913   48.597
| 45> C  -23.415   25.773   45.218
| 46> H  -24.102   25.021   45.627
| 47> H  -24.012   26.545   44.716
| 48> O  -22.586   26.394   46.375
| 49> C  -22.527   25.088   44.142
| 50> C  -23.367   24.589   42.962
| 51> C  -23.594   25.896   42.164
| 52> C  -22.268   26.669   42.371
| 53> O  -21.605   26.060   43.545
| 54> H  -21.916   24.319   44.620
| 55> O  -22.553   23.568   42.121
| 56> H  -24.304   24.113   43.271
| 57> H  -23.811   25.715   41.106
| 58> H  -24.437   26.454   42.589
| 59> H  -22.430   27.735   42.565
| 60> H  -21.585   26.562   41.524
| 61> H  -21.610   24.025   41.800
| 62> *
| 63>
| 64>                          ****END OF INPUT****
 Total Charge           Charge          ....    0
 Multiplicity           Mult            ....    1
 Number of Electrons    NEL             ....  102
FINAL SINGLE POINT ENERGY      -652.825583714674
FINAL SINGLE POINT ENERGY      -652.848058827804
FINAL SINGLE POINT ENERGY      -652.853095104134
FINAL SINGLE POINT ENERGY      -652.855437227157
FINAL SINGLE POINT ENERGY      -652.855711263856
FINAL SINGLE POINT ENERGY      -652.855764449665
                    ***********************HURRAY********************

CARTESIAN COORDINATES (ANGSTROEM)
---------------------------------
  C    -20.861344   26.230376   46.230782
  C    -20.258541   27.621714   46.042567
  C    -20.438158   28.241037   47.449010
  C    -20.230787   27.031064   48.386813
  O    -20.410203   25.827144   47.538433
  H    -20.516441   25.480747   45.522968
  H    -19.195606   27.525629   45.789960
  H    -20.757338   28.179447   45.248442
  H    -19.729882   29.050577   47.649244
  H    -21.454171   28.634240   47.549638
  H    -20.952825   26.993464   49.206975
  H    -19.216547   26.979171   48.795234
  C    -23.164614   25.789139   45.205667
  H    -23.846446   25.069624   45.679871
  H    -23.765160   26.627922   44.832091
  O    -22.313446   26.327799   46.255426
  C    -22.473149   25.092992   44.033288
  C    -23.451292   24.614032   42.949709
  C    -23.680833   25.916277   42.133815
  C    -22.297426   26.613970   42.193227
  O    -21.559114   25.994412   43.321295
  H    -21.870754   24.251351   44.388193
  O    -22.858168   23.563883   42.140269
  H    -24.372230   24.184126   43.344581
  H    -23.997346   25.682722   41.114691
  H    -24.457494   26.528104   42.604956
  H    -22.373683   27.691520   42.368055
  H    -21.702529   26.447805   41.289857
  H    -21.941471   23.816710   41.901939

 Multiplicity           Mult            ....    1
 Number of Electrons    NEL             ....  102
 Basis Dimension        Dim             ....  149

ORBITAL ENERGIES
----------------

  NO   OCC          E(Eh)            E(eV)
   0   2.0000     -19.155398      -521.2449
   1   2.0000     -19.147567      -521.0318
   2   2.0000     -19.130559      -520.5690
   3   2.0000     -19.127860      -520.4955
   4   2.0000     -10.267921      -279.4043
   5   2.0000     -10.252634      -278.9884
   6   2.0000     -10.244656      -278.7713
   7   2.0000     -10.241749      -278.6922
   8   2.0000     -10.235393      -278.5192
   9   2.0000     -10.214949      -277.9629
  10   2.0000     -10.198890      -277.5259
  11   2.0000     -10.175148      -276.8798
  12   2.0000     -10.171541      -276.7817
  13   2.0000      -1.049572       -28.5603
  14   2.0000      -1.038112       -28.2485
  15   2.0000      -1.016174       -27.6515
  16   2.0000      -0.982408       -26.7327
  17   2.0000      -0.794093       -21.6084
  18   2.0000      -0.776996       -21.1431
  19   2.0000      -0.769746       -20.9458
  20   2.0000      -0.728871       -19.8336
  21   2.0000      -0.676034       -18.3958
  22   2.0000      -0.614594       -16.7240
  23   2.0000      -0.609642       -16.5892
  24   2.0000      -0.587465       -15.9857
  25   2.0000      -0.565715       -15.3939
  26   2.0000      -0.535441       -14.5701
  27   2.0000      -0.512602       -13.9486
  28   2.0000      -0.492703       -13.4071
  29   2.0000      -0.485877       -13.2214
  30   2.0000      -0.475372       -12.9355
  31   2.0000      -0.457144       -12.4395
  32   2.0000      -0.450936       -12.2706
  33   2.0000      -0.438835       -11.9413
  34   2.0000      -0.428023       -11.6471
  35   2.0000      -0.410670       -11.1749
  36   2.0000      -0.403957       -10.9922
  37   2.0000      -0.393800       -10.7159
  38   2.0000      -0.381908       -10.3923
  39   2.0000      -0.370374       -10.0784
  40   2.0000      -0.360586        -9.8121
  41   2.0000      -0.348591        -9.4856
  42   2.0000      -0.343753        -9.3540
  43   2.0000      -0.337407        -9.1813
  44   2.0000      -0.321293        -8.7428
  45   2.0000      -0.303802        -8.2669
  46   2.0000      -0.301037        -8.1916
  47   2.0000      -0.281247        -7.6531
  48   2.0000      -0.256615        -6.9829
  49   2.0000      -0.251376        -6.8403
  50   2.0000      -0.234872        -6.3912
  51   0.0000       0.055149         1.5007
  52   0.0000       0.080895         2.2013
  53   0.0000       0.086402         2.3511
  54   0.0000       0.091894         2.5006
  55   0.0000       0.099584         2.7098

MULLIKEN ATOMIC CHARGES
-----------------------
   0 C :    0.293597
   1 C :   -0.242374
   2 C :   -0.301415
   3 C :    0.000183
   4 O :   -0.507375
   5 H :    0.159542
   6 H :    0.138177
   7 H :    0.145380
   8 H :    0.135085
   9 H :    0.157785
  10 H :    0.148264
  11 H :    0.136743
  12 C :    0.042633
  13 H :    0.143248
  14 H :    0.133033
  15 O :   -0.539354
  16 C :    0.014295
  17 C :    0.081134
  18 C :   -0.297900
  19 C :   -0.033778
  20 O :   -0.527475
  21 H :    0.174248
  22 O :   -0.598657
  23 H :    0.157877
  24 H :    0.166106
  25 H :    0.148810
  26 H :    0.155237
  27 H :    0.150951
  28 H :    0.365999
Sum of atomic charges:   -0.0000000

LOEWDIN ATOMIC CHARGES
----------------------
   0 C :    0.182102
   1 C :   -0.218093
   2 C :   -0.219068
   3 C :   -0.026504
   4 O :   -0.315285
   5 H :    0.106054
   6 H :    0.110863
   7 H :    0.117695
   8 H :    0.110780
   9 H :    0.116937
  10 H :    0.105642
  11 H :    0.099447
  12 C :   -0.031170
  13 H :    0.107005
  14 H :    0.098756
  15 O :   -0.337371
  16 C :   -0.002789
  17 C :    0.040913
  18 C :   -0.240292
  19 C :   -0.038358
  20 O :   -0.334696
  21 H :    0.118901
  22 O :   -0.411164
  23 H :    0.119062
  24 H :    0.128457
  25 H :    0.115249
  26 H :    0.107817
  27 H :    0.104900
  28 H :    0.284207

  Mayer bond orders larger than 0.100000
B(  0-C ,  1-C ) :   0.9402 B(  0-C ,  4-O ) :   0.9175 B(  0-C ,  5-H ) :   0.9089
B(  0-C , 15-O ) :   0.8280 B(  1-C ,  2-C ) :   0.9535 B(  1-C ,  6-H ) :   0.9378
B(  1-C ,  7-H ) :   0.9391 B(  2-C ,  3-C ) :   0.9541 B(  2-C ,  8-H ) :   0.9459
B(  2-C ,  9-H ) :   0.9444 B(  3-C ,  4-O ) :   0.8410 B(  3-C , 10-H ) :   0.9353
B(  3-C , 11-H ) :   0.9402 B( 12-C , 13-H ) :   0.9158 B( 12-C , 14-H ) :   0.9250
B( 12-C , 15-O ) :   0.8531 B( 12-C , 16-C ) :   0.9011 B( 16-C , 17-C ) :   0.8964
B( 16-C , 20-O ) :   0.8341 B( 16-C , 21-H ) :   0.9168 B( 17-C , 18-C ) :   0.9115
B( 17-C , 22-O ) :   0.8974 B( 17-C , 23-H ) :   0.9330 B( 18-C , 19-C ) :   0.9412
B( 18-C , 24-H ) :   0.9369 B( 18-C , 25-H ) :   0.9327 B( 19-C , 20-O ) :   0.8394
B( 19-C , 26-H ) :   0.9334 B( 19-C , 27-H ) :   0.9375 B( 22-O , 28-H ) :   0.7939

FINAL SINGLE POINT ENERGY      -652.855766815758

DIPOLE MOMENT
-------------
                                X             Y             Z
Electronic contribution:      0.30293      -4.97833       0.15797
Nuclear contribution   :     -0.60133       5.99067      -1.02309
                        -----------------------------------------
Total Dipole Moment    :     -0.29840       1.01234      -0.86511
                        -----------------------------------------
Magnitude (a.u.)       :      1.36466
Magnitude (Debye)      :      3.46869

Rotational constants in cm-1:     0.065301     0.012812     0.012126
Rotational constants in MHz :  1957.682356   384.107627   363.514189

                             ****ORCA TERMINATED NORMALLY****
TOTAL RUN TIME: 0 days 0 hours 25 minutes 18 seconds 344 msec
