                         Program Version 4.2.0 -  RELEASE  -
|  1> # Test redundant internal optimization
|  2> #
|  3> ! RKS B3LYP  Opt TightSCF SmallPrint
|  4>
|  5> %basis
|  6>         Basis "6-31G"
|  7> end
|  8>
|  9> %geom
| 10> Constraints
| 11> { D 4  0  15  12  120.0   C } # D for Dihedral angle
| 12> { D 0  15  12  16  210.0   C } # D for Dihedral angle
| 13> { D 0  4  3  2   C } # D for Dihedral angle
| 14> { D 4  3  2  1   C } # D for Dihedral angle
| 15> { D 3  2  1  0   C } # D for Dihedral angle
| 16> { D 2  1  0  4   C } # D for Dihedral angle
| 17> { D 1  0  4  3   C } # D for Dihedral angle
| 18> { D 16  20  19  18   C } # D for Dihedral angle
| 19> { D 20  19  18  17   C } # D for Dihedral angle
| 20> { D 19  18  17  16   C } # D for Dihedral angle
| 21> { D 18  17  16  20   C } # D for Dihedral angle
| 22> { D 17  16  20  19   C } # D for Dihedral angle
| 23> { D 15  12  16  20   C } # D for Dihedral angle
| 24> end
| 25> end
| 26>
| 27>
| 28> #%pal
| 29> #nprocs 8
| 30> #end
| 31>
| 32> * xyz 0 1
| 33> C  -21.048   26.222   46.251
| 34> C  -20.361   27.558   45.944
| 35> C  -20.329   28.222   47.341
| 36> C  -20.110   27.022   48.296
| 37> O  -20.473   25.807   47.535
| 38> H  -20.833   25.428   45.533
| 39> H  -19.344   27.382   45.576
| 40> H  -20.898   28.157   45.201
| 41> H  -19.543   28.978   47.434
| 42> H  -21.289   28.710   47.548
| 43> H  -20.733   27.082   49.195
| 44> H  -19.064   26.913   48.597
| 45> C  -23.119   27.818   46.058
| 46> H  -22.348   28.557   46.308
| 47> H  -23.350   27.912   44.989
| 48> O  -22.586   26.394   46.375
| 49> C  -24.408   28.168   46.853
| 50> C  -24.969   29.530   46.431
| 51> C  -25.694   29.175   45.111
| 52> C  -26.243   27.752   45.383
| 53> O  -25.480   27.220   46.533
| 54> H  -24.205   28.074   47.922
| 55> H  -25.683   29.892   47.179
| 56> O  -23.870   30.611   46.241
| 57> H  -26.487   29.886   44.857
| 58> H  -24.979   29.160   44.280
| 59> H  -26.114   27.082   44.526
| 60> H  -27.298   27.760   45.672
| 61> H  -23.143   30.272   45.495
| 62> *
| 63>
| 64>                          ****END OF INPUT****
 Total Charge           Charge          ....    0
 Multiplicity           Mult            ....    1
 Number of Electrons    NEL             ....  102
FINAL SINGLE POINT ENERGY      -652.809445487545
FINAL SINGLE POINT ENERGY      -652.834550591346
FINAL SINGLE POINT ENERGY      -652.842959758026
FINAL SINGLE POINT ENERGY      -652.845105657401
FINAL SINGLE POINT ENERGY      -652.845570347020
FINAL SINGLE POINT ENERGY      -652.845717576631
FINAL SINGLE POINT ENERGY      -652.845735048465
FINAL SINGLE POINT ENERGY      -652.845728960898
FINAL SINGLE POINT ENERGY      -652.845726753778
                    ***********************HURRAY********************

CARTESIAN COORDINATES (ANGSTROEM)
---------------------------------
  C    -21.139146   26.313502   46.321325
  C    -20.151224   27.434842   45.977528
  C    -20.012704   28.177348   47.338676
  C    -20.113123   27.017246   48.359215
  O    -20.722454   25.881390   47.632085
  H    -21.046103   25.430371   45.686215
  H    -19.197534   26.976791   45.696214
  H    -20.472882   28.080461   45.155786
  H    -19.063322   28.715738   47.419235
  H    -20.818456   28.903163   47.484377
  H    -20.734727   27.261809   49.225120
  H    -19.131955   26.680732   48.706445
  C    -23.070625   27.944893   45.964571
  H    -22.390198   28.755033   46.246691
  H    -23.238071   27.996849   44.878031
  O    -22.554377   26.634135   46.304154
  C    -24.377120   28.147572   46.730574
  C    -25.062466   29.491407   46.434124
  C    -25.848574   29.169294   45.127375
  C    -26.270708   27.698231   45.341127
  O    -25.395714   27.154492   46.408761
  H    -24.162453   28.016342   47.794902
  H    -25.752228   29.732823   47.245639
  O    -24.172610   30.634118   46.348813
  H    -26.698626   29.839905   44.977141
  H    -25.177730   29.271488   44.262937
  H    -26.157887   27.087280   44.439995
  H    -27.301956   27.612862   45.697208
  H    -23.766029   30.683880   45.459737

 Multiplicity           Mult            ....    1
 Number of Electrons    NEL             ....  102
 Basis Dimension        Dim             ....  149

ORBITAL ENERGIES
----------------

  NO   OCC          E(Eh)            E(eV)
   0   2.0000     -19.153095      -521.1822
   1   2.0000     -19.134965      -520.6889
   2   2.0000     -19.134820      -520.6849
   3   2.0000     -19.134733      -520.6826
   4   2.0000     -10.276410      -279.6353
   5   2.0000     -10.246612      -278.8245
   6   2.0000     -10.231730      -278.4195
   7   2.0000     -10.229816      -278.3674
   8   2.0000     -10.229242      -278.3518
   9   2.0000     -10.224696      -278.2281
  10   2.0000     -10.198393      -277.5124
  11   2.0000     -10.194064      -277.3946
  12   2.0000     -10.192932      -277.3638
  13   2.0000      -1.046907       -28.4878
  14   2.0000      -1.034990       -28.1635
  15   2.0000      -1.015532       -27.6340
  16   2.0000      -0.990038       -26.9403
  17   2.0000      -0.788656       -21.4604
  18   2.0000      -0.784306       -21.3421
  19   2.0000      -0.770686       -20.9714
  20   2.0000      -0.731568       -19.9070
  21   2.0000      -0.684372       -18.6227
  22   2.0000      -0.613347       -16.6900
  23   2.0000      -0.604913       -16.4605
  24   2.0000      -0.593408       -16.1475
  25   2.0000      -0.569892       -15.5075
  26   2.0000      -0.524902       -14.2833
  27   2.0000      -0.515061       -14.0155
  28   2.0000      -0.501662       -13.6509
  29   2.0000      -0.497332       -13.5331
  30   2.0000      -0.467041       -12.7088
  31   2.0000      -0.458098       -12.4655
  32   2.0000      -0.443339       -12.0639
  33   2.0000      -0.435077       -11.8391
  34   2.0000      -0.431055       -11.7296
  35   2.0000      -0.418557       -11.3895
  36   2.0000      -0.413741       -11.2585
  37   2.0000      -0.398285       -10.8379
  38   2.0000      -0.381314       -10.3761
  39   2.0000      -0.377884       -10.2827
  40   2.0000      -0.362855        -9.8738
  41   2.0000      -0.356797        -9.7089
  42   2.0000      -0.349793        -9.5184
  43   2.0000      -0.329906        -8.9772
  44   2.0000      -0.318391        -8.6639
  45   2.0000      -0.309977        -8.4349
  46   2.0000      -0.286651        -7.8002
  47   2.0000      -0.273225        -7.4348
  48   2.0000      -0.264846        -7.2068
  49   2.0000      -0.247004        -6.7213
  50   2.0000      -0.237603        -6.4655
  51   0.0000       0.045796         1.2462
  52   0.0000       0.073482         1.9996
  53   0.0000       0.085187         2.3180
  54   0.0000       0.090168         2.4536
  55   0.0000       0.102504         2.7893

MULLIKEN ATOMIC CHARGES
-----------------------
   0 C :    0.318980
   1 C :   -0.303933
   2 C :   -0.314897
   3 C :   -0.002873
   4 O :   -0.493892
   5 H :    0.158306
   6 H :    0.157048
   7 H :    0.142225
   8 H :    0.145394
   9 H :    0.161146
  10 H :    0.149815
  11 H :    0.144233
  12 C :   -0.011809
  13 H :    0.128907
  14 H :    0.118597
  15 O :   -0.515563
  16 C :    0.099896
  17 C :    0.081298
  18 C :   -0.329477
  19 C :   -0.009436
  20 O :   -0.497840
  21 H :    0.164696
  22 H :    0.169979
  23 O :   -0.602243
  24 H :    0.159210
  25 H :    0.130362
  26 H :    0.147703
  27 H :    0.149421
  28 H :    0.354749
Sum of atomic charges:   -0.0000000

LOEWDIN ATOMIC CHARGES
----------------------
   0 C :    0.181816
   1 C :   -0.233360
   2 C :   -0.223040
   3 C :   -0.030108
   4 O :   -0.311873
   5 H :    0.106422
   6 H :    0.123355
   7 H :    0.112908
   8 H :    0.115995
   9 H :    0.112120
  10 H :    0.106075
  11 H :    0.103487
  12 C :   -0.048916
  13 H :    0.097445
  14 H :    0.086599
  15 O :   -0.317250
  16 C :    0.022613
  17 C :    0.033032
  18 C :   -0.242215
  19 C :   -0.029718
  20 O :   -0.307967
  21 H :    0.120547
  22 H :    0.120021
  23 O :   -0.410454
  24 H :    0.122710
  25 H :    0.102125
  26 H :    0.104538
  27 H :    0.105988
  28 H :    0.277105

  Mayer bond orders larger than 0.100000
B(  0-C ,  1-C ) :   0.9287 B(  0-C ,  4-O ) :   0.9144 B(  0-C ,  5-H ) :   0.9317
B(  0-C , 15-O ) :   0.8776 B(  1-C ,  2-C ) :   0.9513 B(  1-C ,  6-H ) :   0.9344
B(  1-C ,  7-H ) :   0.9318 B(  2-C ,  3-C ) :   0.9473 B(  2-C ,  8-H ) :   0.9457
B(  2-C ,  9-H ) :   0.9356 B(  3-C ,  4-O ) :   0.8478 B(  3-C , 10-H ) :   0.9339
B(  3-C , 11-H ) :   0.9393 B( 12-C , 13-H ) :   0.8855 B( 12-C , 14-H ) :   0.9215
B( 12-C , 15-O ) :   0.8523 B( 12-C , 16-C ) :   0.9014 B( 16-C , 17-C ) :   0.8698
B( 16-C , 20-O ) :   0.8766 B( 16-C , 21-H ) :   0.9286 B( 17-C , 18-C ) :   0.9274
B( 17-C , 22-H ) :   0.9326 B( 17-C , 23-O ) :   0.8884 B( 18-C , 19-C ) :   0.9396
B( 18-C , 24-H ) :   0.9408 B( 18-C , 25-H ) :   0.9403 B( 19-C , 20-O ) :   0.8530
B( 19-C , 26-H ) :   0.9307 B( 19-C , 27-H ) :   0.9376 B( 23-O , 28-H ) :   0.8000

FINAL SINGLE POINT ENERGY      -652.845727171258

DIPOLE MOMENT
-------------
                                X             Y             Z
Electronic contribution:     -2.18171      -3.90947       1.91479
Nuclear contribution   :      2.63035       5.34113      -3.11547
                        -----------------------------------------
Total Dipole Moment    :      0.44864       1.43166      -1.20068
                        -----------------------------------------
Magnitude (a.u.)       :      1.92161
Magnitude (Debye)      :      4.88434

Rotational constants in cm-1:     0.051734     0.013740     0.012249
Rotational constants in MHz :  1550.936551   411.914873   367.211801

                             ****ORCA TERMINATED NORMALLY****
TOTAL RUN TIME: 0 days 0 hours 29 minutes 38 seconds 195 msec
