                         Program Version 4.2.0 -  RELEASE  -
|  1> # Test redundant internal optimization
|  2> #
|  3> ! RKS B3LYP  Opt TightSCF SmallPrint
|  4>
|  5> %basis
|  6>         Basis "6-31G"
|  7> end
|  8>
|  9> %geom
| 10> Constraints
| 11> { D 4  0  15  12  225.0   C } # D for Dihedral angle
| 12> { D 0  15  12  16  15.0   C } # D for Dihedral angle
| 13> { D 0  4  3  2   C } # D for Dihedral angle
| 14> { D 4  3  2  1   C } # D for Dihedral angle
| 15> { D 3  2  1  0   C } # D for Dihedral angle
| 16> { D 2  1  0  4   C } # D for Dihedral angle
| 17> { D 1  0  4  3   C } # D for Dihedral angle
| 18> { D 16  20  19  18   C } # D for Dihedral angle
| 19> { D 20  19  18  17   C } # D for Dihedral angle
| 20> { D 19  18  17  16   C } # D for Dihedral angle
| 21> { D 18  17  16  20   C } # D for Dihedral angle
| 22> { D 17  16  20  19   C } # D for Dihedral angle
| 23> { D 15  12  16  20   C } # D for Dihedral angle
| 24> end
| 25> end
| 26>
| 27>
| 28> #%pal
| 29> #nprocs 8
| 30> #end
| 31>
| 32> * xyz 0 1
| 33> C  -21.048   26.222   46.251
| 34> C  -20.361   27.558   45.944
| 35> C  -20.329   28.222   47.341
| 36> C  -20.110   27.022   48.296
| 37> O  -20.473   25.807   47.535
| 38> H  -20.833   25.428   45.533
| 39> H  -19.344   27.382   45.576
| 40> H  -20.898   28.157   45.201
| 41> H  -19.543   28.978   47.434
| 42> H  -21.289   28.710   47.548
| 43> H  -20.733   27.082   49.195
| 44> H  -19.064   26.913   48.597
| 45> C  -23.415   25.773   45.218
| 46> H  -24.272   25.231   45.637
| 47> H  -23.798   26.559   44.554
| 48> O  -22.586   26.394   46.375
| 49> C  -22.589   24.783   44.350
| 50> C  -22.155   23.559   45.164
| 51> C  -23.450   22.712   45.171
| 52> C  -24.062   22.994   43.776
| 53> O  -23.419   24.228   43.276
| 54> H  -21.769   25.324   43.874
| 55> O  -21.013   22.808   44.427
| 56> H  -21.807   23.812   46.171
| 57> H  -23.260   21.647   45.336
| 58> H  -24.122   23.059   45.965
| 59> H  -25.146   23.146   43.816
| 60> H  -23.843   22.201   43.056
| 61> H  -21.339   22.543   43.414
| 62> *
| 63>
| 64>                          ****END OF INPUT****
 Total Charge           Charge          ....    0
 Multiplicity           Mult            ....    1
 Number of Electrons    NEL             ....  102
FINAL SINGLE POINT ENERGY      -652.825474304366
FINAL SINGLE POINT ENERGY      -652.848209477955
FINAL SINGLE POINT ENERGY      -652.852515642170
FINAL SINGLE POINT ENERGY      -652.854545446438
FINAL SINGLE POINT ENERGY      -652.854731873825
FINAL SINGLE POINT ENERGY      -652.854767973840
FINAL SINGLE POINT ENERGY      -652.854771406301
                    ***********************HURRAY********************

CARTESIAN COORDINATES (ANGSTROEM)
---------------------------------
  C    -20.886495   26.221468   46.256172
  C    -20.261674   27.592185   45.996429
  C    -20.456481   28.297266   47.361510
  C    -20.281064   27.142683   48.371885
  O    -20.462854   25.891963   47.591992
  H    -20.533877   25.425350   45.601972
  H    -19.195599   27.472008   45.768430
  H    -20.741891   28.119489   45.168215
  H    -19.739959   29.107791   47.523659
  H    -21.468347   28.708229   47.419824
  H    -21.018597   27.161258   49.178539
  H    -19.275033   27.100522   48.800314
  C    -23.176217   25.747257   45.210557
  H    -24.032484   25.316645   45.739591
  H    -23.553290   26.550781   44.566527
  O    -22.334048   26.339329   46.246856
  C    -22.549324   24.687737   44.293350
  C    -22.095328   23.390236   44.981673
  C    -23.445039   22.643583   45.169184
  C    -24.244175   23.043529   43.902836
  O    -23.584444   24.252096   43.348902
  H    -21.742461   25.114819   43.690290
  O    -21.171334   22.657191   44.130732
  H    -21.568391   23.538181   45.923383
  H    -23.280496   21.566260   45.248230
  H    -23.940339   22.986156   46.083086
  H    -25.291494   23.278182   44.115274
  H    -24.210242   22.275097   43.123503
  H    -21.529024   22.626711   43.218087

 Multiplicity           Mult            ....    1
 Number of Electrons    NEL             ....  102
 Basis Dimension        Dim             ....  149

ORBITAL ENERGIES
----------------

  NO   OCC          E(Eh)            E(eV)
   0   2.0000     -19.151256      -521.1322
   1   2.0000     -19.142057      -520.8819
   2   2.0000     -19.138080      -520.7736
   3   2.0000     -19.136948      -520.7428
   4   2.0000     -10.278972      -279.7051
   5   2.0000     -10.243189      -278.7314
   6   2.0000     -10.241341      -278.6811
   7   2.0000     -10.236521      -278.5499
   8   2.0000     -10.232736      -278.4469
   9   2.0000     -10.222263      -278.1619
  10   2.0000     -10.192080      -277.3406
  11   2.0000     -10.182832      -277.0890
  12   2.0000     -10.182695      -277.0852
  13   2.0000      -1.049579       -28.5605
  14   2.0000      -1.041641       -28.3445
  15   2.0000      -1.010891       -27.5077
  16   2.0000      -0.989779       -26.9333
  17   2.0000      -0.786211       -21.3939
  18   2.0000      -0.780999       -21.2521
  19   2.0000      -0.769029       -20.9263
  20   2.0000      -0.735688       -20.0191
  21   2.0000      -0.677243       -18.4287
  22   2.0000      -0.610991       -16.6259
  23   2.0000      -0.605443       -16.4749
  24   2.0000      -0.596089       -16.2204
  25   2.0000      -0.572367       -15.5749
  26   2.0000      -0.526993       -14.3402
  27   2.0000      -0.520012       -14.1502
  28   2.0000      -0.499352       -13.5881
  29   2.0000      -0.481564       -13.1040
  30   2.0000      -0.471673       -12.8349
  31   2.0000      -0.460888       -12.5414
  32   2.0000      -0.452072       -12.3015
  33   2.0000      -0.433000       -11.7825
  34   2.0000      -0.425739       -11.5850
  35   2.0000      -0.419294       -11.4096
  36   2.0000      -0.400375       -10.8947
  37   2.0000      -0.397235       -10.8093
  38   2.0000      -0.373242       -10.1564
  39   2.0000      -0.372661       -10.1406
  40   2.0000      -0.366586        -9.9753
  41   2.0000      -0.354458        -9.6453
  42   2.0000      -0.350098        -9.5266
  43   2.0000      -0.335007        -9.1160
  44   2.0000      -0.313147        -8.5212
  45   2.0000      -0.311946        -8.4885
  46   2.0000      -0.308881        -8.4051
  47   2.0000      -0.274397        -7.4667
  48   2.0000      -0.260934        -7.1004
  49   2.0000      -0.253244        -6.8911
  50   2.0000      -0.241091        -6.5604
  51   0.0000       0.059418         1.6168
  52   0.0000       0.074596         2.0299
  53   0.0000       0.091853         2.4994
  54   0.0000       0.095682         2.6036
  55   0.0000       0.096918         2.6373

MULLIKEN ATOMIC CHARGES
-----------------------
   0 C :    0.271367
   1 C :   -0.252399
   2 C :   -0.298031
   3 C :   -0.001441
   4 O :   -0.506583
   5 H :    0.160309
   6 H :    0.143583
   7 H :    0.142429
   8 H :    0.139856
   9 H :    0.163333
  10 H :    0.151999
  11 H :    0.141156
  12 C :    0.020888
  13 H :    0.145087
  14 H :    0.150828
  15 O :   -0.535505
  16 C :    0.018556
  17 C :    0.074046
  18 C :   -0.299426
  19 C :   -0.041038
  20 O :   -0.525478
  21 H :    0.161551
  22 O :   -0.603428
  23 H :    0.190562
  24 H :    0.166693
  25 H :    0.153303
  26 H :    0.153746
  27 H :    0.150738
  28 H :    0.363298
Sum of atomic charges:   -0.0000000

LOEWDIN ATOMIC CHARGES
----------------------
   0 C :    0.171673
   1 C :   -0.223343
   2 C :   -0.216068
   3 C :   -0.025835
   4 O :   -0.314344
   5 H :    0.104730
   6 H :    0.112423
   7 H :    0.115946
   8 H :    0.113303
   9 H :    0.119807
  10 H :    0.107896
  11 H :    0.101848
  12 C :   -0.035074
  13 H :    0.107094
  14 H :    0.107033
  15 O :   -0.338961
  16 C :   -0.001462
  17 C :    0.029530
  18 C :   -0.239439
  19 C :   -0.040612
  20 O :   -0.325679
  21 H :    0.111829
  22 O :   -0.413502
  23 H :    0.129845
  24 H :    0.129026
  25 H :    0.118626
  26 H :    0.107100
  27 H :    0.104274
  28 H :    0.282333

  Mayer bond orders larger than 0.100000
B(  0-C ,  1-C ) :   0.9371 B(  0-C ,  4-O ) :   0.9227 B(  0-C ,  5-H ) :   0.9066
B(  0-C , 15-O ) :   0.8352 B(  1-C ,  2-C ) :   0.9562 B(  1-C ,  6-H ) :   0.9357
B(  1-C ,  7-H ) :   0.9398 B(  2-C ,  3-C ) :   0.9544 B(  2-C ,  8-H ) :   0.9453
B(  2-C ,  9-H ) :   0.9434 B(  3-C ,  4-O ) :   0.8365 B(  3-C , 10-H ) :   0.9349
B(  3-C , 11-H ) :   0.9398 B( 12-C , 13-H ) :   0.9313 B( 12-C , 14-H ) :   0.9192
B( 12-C , 15-O ) :   0.8378 B( 12-C , 16-C ) :   0.8899 B( 16-C , 17-C ) :   0.8967
B( 16-C , 20-O ) :   0.8323 B( 16-C , 21-H ) :   0.9233 B( 17-C , 18-C ) :   0.9112
B( 17-C , 22-O ) :   0.8842 B( 17-C , 23-H ) :   0.9174 B( 18-C , 19-C ) :   0.9421
B( 18-C , 24-H ) :   0.9365 B( 18-C , 25-H ) :   0.9335 B( 19-C , 20-O ) :   0.8378
B( 19-C , 26-H ) :   0.9341 B( 19-C , 27-H ) :   0.9373 B( 22-O , 28-H ) :   0.7958

FINAL SINGLE POINT ENERGY      -652.854772307085

DIPOLE MOMENT
-------------
                                X             Y             Z
Electronic contribution:      0.04146      -2.56505      -1.79600
Nuclear contribution   :     -0.39415       2.90941       1.61494
                        -----------------------------------------
Total Dipole Moment    :     -0.35269       0.34436      -0.18106
                        -----------------------------------------
Magnitude (a.u.)       :      0.52512
Magnitude (Debye)      :      1.33476

Rotational constants in cm-1:     0.059015     0.013171     0.012442
Rotational constants in MHz :  1769.227314   394.859502   372.987388

                             ****ORCA TERMINATED NORMALLY****
TOTAL RUN TIME: 0 days 1 hours 10 minutes 34 seconds 473 msec
