                         Program Version 4.2.0 -  RELEASE  -
|  1> # Test redundant internal optimization
|  2> #
|  3> ! RKS B3LYP  Opt TightSCF SmallPrint
|  4>
|  5> %basis
|  6>         Basis "6-31G"
|  7> end
|  8>
|  9> %geom
| 10> Constraints
| 11> { D 4  0  15  12  285.0   C } # D for Dihedral angle
| 12> { D 0  15  12  16  75.0   C } # D for Dihedral angle
| 13> { D 0  4  3  2   C } # D for Dihedral angle
| 14> { D 4  3  2  1   C } # D for Dihedral angle
| 15> { D 3  2  1  0   C } # D for Dihedral angle
| 16> { D 2  1  0  4   C } # D for Dihedral angle
| 17> { D 1  0  4  3   C } # D for Dihedral angle
| 18> { D 16  20  19  18   C } # D for Dihedral angle
| 19> { D 20  19  18  17   C } # D for Dihedral angle
| 20> { D 19  18  17  16   C } # D for Dihedral angle
| 21> { D 18  17  16  20   C } # D for Dihedral angle
| 22> { D 17  16  20  19   C } # D for Dihedral angle
| 23> { D 15  12  16  20   C } # D for Dihedral angle
| 24> end
| 25> end
| 26>
| 27>
| 28> #%pal
| 29> #nprocs 8
| 30> #end
| 31>
| 32> * xyz 0 1
| 33> C  -21.048   26.222   46.251
| 34> C  -20.361   27.558   45.944
| 35> C  -20.329   28.222   47.341
| 36> C  -20.110   27.022   48.296
| 37> O  -20.473   25.807   47.535
| 38> H  -20.833   25.428   45.533
| 39> H  -19.344   27.382   45.576
| 40> H  -20.898   28.157   45.201
| 41> H  -19.543   28.978   47.434
| 42> H  -21.289   28.710   47.548
| 43> H  -20.733   27.082   49.195
| 44> H  -19.064   26.913   48.597
| 45> C  -23.396   25.070   46.435
| 46> H  -24.455   25.284   46.243
| 47> H  -23.043   24.369   45.668
| 48> O  -22.586   26.394   46.375
| 49> C  -23.283   24.359   47.812
| 50> C  -23.912   25.203   48.927
| 51> C  -25.419   24.913   48.728
| 52> C  -25.435   23.432   48.273
| 53> O  -24.065   23.118   47.814
| 54> H  -22.242   24.082   47.988
| 55> O  -23.434   24.693   50.314
| 56> H  -23.670   26.268   48.850
| 57> H  -26.006   25.077   49.636
| 58> H  -25.826   25.563   47.943
| 59> H  -26.138   23.252   47.453
| 60> H  -25.665   22.746   49.093
| 61> H  -23.667   23.626   50.415
| 62> *
| 63>
| 64>                          ****END OF INPUT****
 Total Charge           Charge          ....    0
 Multiplicity           Mult            ....    1
 Number of Electrons    NEL             ....  102
FINAL SINGLE POINT ENERGY      -652.843137631669
FINAL SINGLE POINT ENERGY      -652.866301188124
FINAL SINGLE POINT ENERGY      -652.870172613735
FINAL SINGLE POINT ENERGY      -652.870916809003
FINAL SINGLE POINT ENERGY      -652.871051425344
FINAL SINGLE POINT ENERGY      -652.871073609027
                    ***********************HURRAY********************

CARTESIAN COORDINATES (ANGSTROEM)
---------------------------------
  C    -21.075866   26.122394   46.275939
  C    -20.474313   27.499296   45.989009
  C    -20.493926   28.152040   47.391402
  C    -20.206625   26.962016   48.336201
  O    -20.493179   25.736625   47.543399
  H    -20.824409   25.326519   45.566813
  H    -19.447697   27.375868   45.626269
  H    -21.052486   28.051475   45.245772
  H    -19.752905   28.950411   47.495101
  H    -21.484965   28.571587   47.587271
  H    -20.836156   26.952436   49.229034
  H    -19.155846   26.900026   48.633547
  C    -23.300304   25.064533   46.407512
  H    -24.318316   25.372345   46.154673
  H    -22.955324   24.348557   45.648615
  O    -22.508102   26.289751   46.346018
  C    -23.245048   24.391786   47.785237
  C    -23.838825   25.230989   48.926115
  C    -25.357390   24.988415   48.735620
  C    -25.423940   23.518171   48.249131
  O    -24.063013   23.172262   47.767585
  H    -22.219906   24.095130   48.013629
  O    -23.371318   24.768671   50.223132
  H    -23.559262   26.281829   48.868547
  H    -25.896480   25.150625   49.672394
  H    -25.760199   25.676943   47.985001
  H    -26.139453   23.371474   47.433438
  H    -25.666769   22.819296   49.055595
  H    -23.344978   23.788529   50.226001

 Multiplicity           Mult            ....    1
 Number of Electrons    NEL             ....  102
 Basis Dimension        Dim             ....  149

ORBITAL ENERGIES
----------------

  NO   OCC          E(Eh)            E(eV)
   0   2.0000     -19.149175      -521.0755
   1   2.0000     -19.142588      -520.8963
   2   2.0000     -19.140000      -520.8259
   3   2.0000     -19.131954      -520.6069
   4   2.0000     -10.280664      -279.7511
   5   2.0000     -10.232106      -278.4298
   6   2.0000     -10.229844      -278.3682
   7   2.0000     -10.228220      -278.3240
   8   2.0000     -10.224595      -278.2254
   9   2.0000     -10.223727      -278.2017
  10   2.0000     -10.186097      -277.1778
  11   2.0000     -10.185694      -277.1668
  12   2.0000     -10.184166      -277.1252
  13   2.0000      -1.056571       -28.7508
  14   2.0000      -1.030624       -28.0447
  15   2.0000      -1.000774       -27.2325
  16   2.0000      -0.996559       -27.1177
  17   2.0000      -0.790178       -21.5018
  18   2.0000      -0.774853       -21.0848
  19   2.0000      -0.761621       -20.7248
  20   2.0000      -0.730150       -19.8684
  21   2.0000      -0.672340       -18.2953
  22   2.0000      -0.599726       -16.3194
  23   2.0000      -0.599291       -16.3075
  24   2.0000      -0.595913       -16.2156
  25   2.0000      -0.576128       -15.6772
  26   2.0000      -0.518733       -14.1154
  27   2.0000      -0.517759       -14.0889
  28   2.0000      -0.489683       -13.3250
  29   2.0000      -0.488585       -13.2951
  30   2.0000      -0.467882       -12.7317
  31   2.0000      -0.458129       -12.4663
  32   2.0000      -0.445146       -12.1130
  33   2.0000      -0.437737       -11.9114
  34   2.0000      -0.418789       -11.3958
  35   2.0000      -0.411461       -11.1964
  36   2.0000      -0.400491       -10.8979
  37   2.0000      -0.388639       -10.5754
  38   2.0000      -0.373570       -10.1653
  39   2.0000      -0.364427        -9.9166
  40   2.0000      -0.357117        -9.7176
  41   2.0000      -0.354216        -9.6387
  42   2.0000      -0.348624        -9.4865
  43   2.0000      -0.333407        -9.0725
  44   2.0000      -0.324408        -8.8276
  45   2.0000      -0.305693        -8.3183
  46   2.0000      -0.299799        -8.1580
  47   2.0000      -0.277746        -7.5578
  48   2.0000      -0.265252        -7.2179
  49   2.0000      -0.257080        -6.9955
  50   2.0000      -0.236695        -6.4408
  51   0.0000       0.068343         1.8597
  52   0.0000       0.078090         2.1249
  53   0.0000       0.095414         2.5963
  54   0.0000       0.100474         2.7340
  55   0.0000       0.107032         2.9125

MULLIKEN ATOMIC CHARGES
-----------------------
   0 C :    0.282890
   1 C :   -0.258631
   2 C :   -0.300745
   3 C :   -0.011021
   4 O :   -0.510615
   5 H :    0.144514
   6 H :    0.146391
   7 H :    0.157455
   8 H :    0.142587
   9 H :    0.161521
  10 H :    0.163409
  11 H :    0.144429
  12 C :   -0.029361
  13 H :    0.146200
  14 H :    0.145065
  15 O :   -0.514792
  16 C :    0.046357
  17 C :    0.093695
  18 C :   -0.299610
  19 C :   -0.035262
  20 O :   -0.527423
  21 H :    0.193225
  22 O :   -0.607147
  23 H :    0.163939
  24 H :    0.159872
  25 H :    0.146734
  26 H :    0.144667
  27 H :    0.148083
  28 H :    0.363575
Sum of atomic charges:   -0.0000000

LOEWDIN ATOMIC CHARGES
----------------------
   0 C :    0.170089
   1 C :   -0.214054
   2 C :   -0.215972
   3 C :   -0.029333
   4 O :   -0.327743
   5 H :    0.097695
   6 H :    0.114810
   7 H :    0.124446
   8 H :    0.114254
   9 H :    0.118275
  10 H :    0.112367
  11 H :    0.104067
  12 C :   -0.041243
  13 H :    0.109345
  14 H :    0.103928
  15 O :   -0.324506
  16 C :   -0.000535
  17 C :    0.038283
  18 C :   -0.242271
  19 C :   -0.040113
  20 O :   -0.332149
  21 H :    0.128821
  22 O :   -0.416308
  23 H :    0.119931
  24 H :    0.125745
  25 H :    0.113859
  26 H :    0.102528
  27 H :    0.103234
  28 H :    0.282551

  Mayer bond orders larger than 0.100000
B(  0-C ,  1-C ) :   0.9506 B(  0-C ,  4-O ) :   0.9020 B(  0-C ,  5-H ) :   0.9177
B(  0-C , 15-O ) :   0.8601 B(  1-C ,  2-C ) :   0.9561 B(  1-C ,  6-H ) :   0.9401
B(  1-C ,  7-H ) :   0.9365 B(  2-C ,  3-C ) :   0.9540 B(  2-C ,  8-H ) :   0.9452
B(  2-C ,  9-H ) :   0.9445 B(  3-C ,  4-O ) :   0.8285 B(  3-C , 10-H ) :   0.9306
B(  3-C , 11-H ) :   0.9406 B( 12-C , 13-H ) :   0.9419 B( 12-C , 14-H ) :   0.9199
B( 12-C , 15-O ) :   0.8440 B( 12-C , 16-C ) :   0.8805 B( 16-C , 17-C ) :   0.9131
B( 16-C , 20-O ) :   0.8262 B( 16-C , 21-H ) :   0.9093 B( 17-C , 18-C ) :   0.9118
B( 17-C , 22-O ) :   0.8881 B( 17-C , 23-H ) :   0.9266 B( 18-C , 19-C ) :   0.9442
B( 18-C , 24-H ) :   0.9379 B( 18-C , 25-H ) :   0.9340 B( 19-C , 20-O ) :   0.8472
B( 19-C , 26-H ) :   0.9351 B( 19-C , 27-H ) :   0.9378 B( 22-O , 28-H ) :   0.7962

FINAL SINGLE POINT ENERGY      -652.871077088366

DIPOLE MOMENT
-------------
                                X             Y             Z
Electronic contribution:      0.44634      -3.95463       0.36703
Nuclear contribution   :     -0.63826       4.55294      -0.86017
                        -----------------------------------------
Total Dipole Moment    :     -0.19192       0.59830      -0.49314
                        -----------------------------------------
Magnitude (a.u.)       :      0.79874
Magnitude (Debye)      :      2.03024

Rotational constants in cm-1:     0.052879     0.015525     0.013963
Rotational constants in MHz :  1585.279101   465.430131   418.605873

                             ****ORCA TERMINATED NORMALLY****
TOTAL RUN TIME: 0 days 1 hours 21 minutes 20 seconds 180 msec
