                         Program Version 4.2.1 -  RELEASE  -
|  1> # Test redundant internal optimization
|  2> #
|  3> ! RKS B3LYP  Opt TightSCF SmallPrint
|  4>
|  5> %basis
|  6>         Basis "6-31G"
|  7> end
|  8>
|  9> %geom
| 10> Constraints
| 11> { D 4  0  19  14  270.0   C } # D for Dihedral angle
| 12> { D 0  19  14  12  120.0   C } # D for Dihedral angle
| 13> { D 0  4  3  2   C } # D for Dihedral angle
| 14> { D 4  3  2  1   C } # D for Dihedral angle
| 15> { D 3  2  1  0   C } # D for Dihedral angle
| 16> { D 2  1  0  4   C } # D for Dihedral angle
| 17> { D 1  0  4  3   C } # D for Dihedral angle
| 18> { D 14  15  16  17   C } # D for Dihedral angle
| 19> { D 15  16  17  12   C } # D for Dihedral angle
| 20> { D 16  17  12  14   C } # D for Dihedral angle
| 21> { D 17  12  14  15   C } # D for Dihedral angle
| 22> { D 12  14  15  16   C } # D for Dihedral angle
| 23> end
| 24> end
| 25>
| 26>
| 27> #%pal
| 28> #nprocs 8
| 29> #end
| 30>
| 31> * xyz 0 1
| 32> C  -21.048   26.222   46.251
| 33> C  -20.361   27.558   45.944
| 34> C  -20.329   28.222   47.341
| 35> C  -20.110   27.022   48.296
| 36> O  -20.473   25.807   47.535
| 37> H  -20.833   25.428   45.533
| 38> H  -19.344   27.382   45.576
| 39> H  -20.898   28.157   45.201
| 40> H  -19.543   28.978   47.434
| 41> H  -21.289   28.710   47.548
| 42> H  -20.733   27.082   49.195
| 43> H  -19.064   26.913   48.597
| 44> C  -24.053   24.788   47.309
| 45> H  -24.404   23.747   47.231
| 46> C  -23.226   25.191   46.082
| 47> C  -24.330   25.480   45.040
| 48> C  -25.471   26.089   45.893
| 49> O  -25.190   25.715   47.297
| 50> H  -23.541   24.922   48.263
| 51> O  -22.472   26.381   46.366
| 52> H  -22.529   24.410   45.758
| 53> H  -23.999   26.155   44.244
| 54> H  -24.658   24.544   44.569
| 55> H  -26.458   25.707   45.611
| 56> H  -25.488   27.182   45.849
| 57> *
| 58>
| 59>                          ****END OF INPUT****
 Total Charge           Charge          ....    0
 Multiplicity           Mult            ....    1
 Number of Electrons    NEL             ....   86
FINAL SINGLE POINT ENERGY      -538.433733857578
FINAL SINGLE POINT ENERGY      -538.435790203603
FINAL SINGLE POINT ENERGY      -538.436076252459
FINAL SINGLE POINT ENERGY      -538.436101212884
FINAL SINGLE POINT ENERGY      -538.436107656399
                    ***********************HURRAY********************

CARTESIAN COORDINATES (ANGSTROEM)
---------------------------------
  C    -20.983817   26.175369   46.237131
  C    -20.402524   27.559486   45.944643
  C    -20.424120   28.215494   47.345618
  C    -20.116103   27.030669   48.289163
  O    -20.388984   25.801774   47.502779
  H    -20.719725   25.385771   45.526161
  H    -19.375024   27.449990   45.578636
  H    -20.990678   28.102940   45.202704
  H    -19.695363   29.025807   47.443657
  H    -21.421611   28.617065   47.545796
  H    -20.743378   27.023505   49.183931
  H    -19.063566   26.985684   48.585046
  C    -24.061434   24.787918   47.313428
  H    -24.467650   23.767412   47.242598
  C    -23.226915   25.128538   46.077480
  C    -24.319384   25.480488   45.049510
  C    -25.408654   26.166158   45.908197
  O    -25.134265   25.782634   47.309464
  H    -23.501382   24.902681   48.241928
  O    -22.414382   26.314332   46.334379
  H    -22.586014   24.298333   45.755886
  H    -23.928396   26.127420   44.260282
  H    -24.699604   24.560719   44.589847
  H    -26.420494   25.844741   45.637734
  H    -25.350532   27.257074   45.857000

 Multiplicity           Mult            ....    1
 Number of Electrons    NEL             ....   86
 Basis Dimension        Dim             ....  127

ORBITAL ENERGIES
----------------

  NO   OCC          E(Eh)            E(eV)
   0   2.0000     -19.141848      -520.8762
   1   2.0000     -19.136306      -520.7254
   2   2.0000     -19.125125      -520.4211
   3   2.0000     -10.279169      -279.7104
   4   2.0000     -10.240397      -278.6554
   5   2.0000     -10.221853      -278.1508
   6   2.0000     -10.218330      -278.0549
   7   2.0000     -10.217333      -278.0278
   8   2.0000     -10.184761      -277.1414
   9   2.0000     -10.183706      -277.1127
  10   2.0000     -10.182219      -277.0723
  11   2.0000      -1.052846       -28.6494
  12   2.0000      -1.011478       -27.5237
  13   2.0000      -0.989069       -26.9139
  14   2.0000      -0.790835       -21.5197
  15   2.0000      -0.774870       -21.0853
  16   2.0000      -0.737370       -20.0648
  17   2.0000      -0.718717       -19.5573
  18   2.0000      -0.605251       -16.4697
  19   2.0000      -0.597939       -16.2707
  20   2.0000      -0.593785       -16.1577
  21   2.0000      -0.579635       -15.7727
  22   2.0000      -0.520077       -14.1520
  23   2.0000      -0.502563       -13.6754
  24   2.0000      -0.479722       -13.0539
  25   2.0000      -0.474311       -12.9067
  26   2.0000      -0.451174       -12.2771
  27   2.0000      -0.442826       -12.0499
  28   2.0000      -0.427446       -11.6314
  29   2.0000      -0.412769       -11.2320
  30   2.0000      -0.404747       -11.0137
  31   2.0000      -0.385101       -10.4791
  32   2.0000      -0.369428       -10.0526
  33   2.0000      -0.364452        -9.9173
  34   2.0000      -0.354569        -9.6483
  35   2.0000      -0.351487        -9.5645
  36   2.0000      -0.341279        -9.2867
  37   2.0000      -0.321692        -8.7537
  38   2.0000      -0.304580        -8.2881
  39   2.0000      -0.297786        -8.1032
  40   2.0000      -0.267953        -7.2914
  41   2.0000      -0.248293        -6.7564
  42   2.0000      -0.229876        -6.2552
  43   0.0000       0.077200         2.1007
  44   0.0000       0.098285         2.6745
  45   0.0000       0.099139         2.6977
  46   0.0000       0.115833         3.1520
  47   0.0000       0.123581         3.3628

MULLIKEN ATOMIC CHARGES
-----------------------
   0 C :    0.280165
   1 C :   -0.256403
   2 C :   -0.299374
   3 C :   -0.001786
   4 O :   -0.511092
   5 H :    0.138218
   6 H :    0.143102
   7 H :    0.150905
   8 H :    0.139575
   9 H :    0.167924
  10 H :    0.150558
  11 H :    0.140129
  12 C :    0.014441
  13 H :    0.118879
  14 C :    0.059600
  15 C :   -0.283327
  16 C :    0.002929
  17 O :   -0.520845
  18 H :    0.169784
  19 O :   -0.511101
  20 H :    0.131276
  21 H :    0.151578
  22 H :    0.139159
  23 H :    0.131938
  24 H :    0.153769
Sum of atomic charges:    0.0000000

LOEWDIN ATOMIC CHARGES
----------------------
   0 C :    0.171985
   1 C :   -0.216526
   2 C :   -0.215986
   3 C :   -0.027287
   4 O :   -0.330710
   5 H :    0.094993
   6 H :    0.112841
   7 H :    0.121060
   8 H :    0.112773
   9 H :    0.121930
  10 H :    0.107126
  11 H :    0.101394
  12 C :   -0.038042
  13 H :    0.089445
  14 C :    0.039821
  15 C :   -0.229268
  16 C :   -0.028377
  17 O :   -0.330535
  18 H :    0.123879
  19 O :   -0.319982
  20 H :    0.101060
  21 H :    0.121965
  22 H :    0.111694
  23 H :    0.096888
  24 H :    0.107861

  Mayer bond orders larger than 0.100000
B(  0-C ,  1-C ) :   0.9478 B(  0-C ,  4-O ) :   0.9136 B(  0-C ,  5-H ) :   0.9176
B(  0-C , 19-O ) :   0.8680 B(  1-C ,  2-C ) :   0.9581 B(  1-C ,  6-H ) :   0.9396
B(  1-C ,  7-H ) :   0.9374 B(  2-C ,  3-C ) :   0.9549 B(  2-C ,  8-H ) :   0.9453
B(  2-C ,  9-H ) :   0.9430 B(  3-C ,  4-O ) :   0.8375 B(  3-C , 10-H ) :   0.9350
B(  3-C , 11-H ) :   0.9404 B( 12-C , 13-H ) :   0.9126 B( 12-C , 14-C ) :   0.9284
B( 12-C , 17-O ) :   0.8690 B( 12-C , 18-H ) :   0.9306 B( 14-C , 15-C ) :   0.9493
B( 14-C , 19-O ) :   0.8231 B( 14-C , 20-H ) :   0.9183 B( 15-C , 16-C ) :   0.9469
B( 15-C , 21-H ) :   0.9402 B( 15-C , 22-H ) :   0.9396 B( 16-C , 17-O ) :   0.8597
B( 16-C , 23-H ) :   0.9333 B( 16-C , 24-H ) :   0.9359

FINAL SINGLE POINT ENERGY      -538.436108283202

DIPOLE MOMENT
-------------
                                X             Y             Z
Electronic contribution:     -0.73102      -2.07367       1.66742
Nuclear contribution   :      1.25879       2.15709      -2.63351
                        -----------------------------------------
Total Dipole Moment    :      0.52777       0.08342      -0.96609
                        -----------------------------------------
Magnitude (a.u.)       :      1.10400
Magnitude (Debye)      :      2.80615

Rotational constants in cm-1:     0.077380     0.020612     0.019775
Rotational constants in MHz :  2319.785788   617.928965   592.829332

                             ****ORCA TERMINATED NORMALLY****
TOTAL RUN TIME: 0 days 0 hours 6 minutes 5 seconds 71 msec
