                         Program Version 4.2.0 -  RELEASE  -
|  1> # Test redundant internal optimization
|  2> #
|  3> ! RKS B3LYP  Opt TightSCF SmallPrint
|  4>
|  5> %basis
|  6>         Basis "6-31G"
|  7> end
|  8>
|  9> %geom
| 10> Constraints
| 11> { D 4  0  15  12  150.0   C } # D for Dihedral angle
| 12> { D 0  15  12  16  180.0   C } # D for Dihedral angle
| 13> { D 0  4  3  2   C } # D for Dihedral angle
| 14> { D 4  3  2  1   C } # D for Dihedral angle
| 15> { D 3  2  1  0   C } # D for Dihedral angle
| 16> { D 2  1  0  4   C } # D for Dihedral angle
| 17> { D 1  0  4  3   C } # D for Dihedral angle
| 18> { D 16  20  19  18   C } # D for Dihedral angle
| 19> { D 20  19  18  17   C } # D for Dihedral angle
| 20> { D 19  18  17  16   C } # D for Dihedral angle
| 21> { D 18  17  16  20   C } # D for Dihedral angle
| 22> { D 17  16  20  19   C } # D for Dihedral angle
| 23> { D 15  12  16  20   C } # D for Dihedral angle
| 24> end
| 25> end
| 26>
| 27>
| 28> #%pal
| 29> #nprocs 8
| 30> #end
| 31>
| 32> * xyz 0 1
| 33> C  -21.048   26.222   46.251
| 34> C  -20.361   27.558   45.944
| 35> C  -20.329   28.222   47.341
| 36> C  -20.110   27.022   48.296
| 37> O  -20.473   25.807   47.535
| 38> H  -20.833   25.428   45.533
| 39> H  -19.344   27.382   45.576
| 40> H  -20.898   28.157   45.201
| 41> H  -19.543   28.978   47.434
| 42> H  -21.289   28.710   47.548
| 43> H  -20.733   27.082   49.195
| 44> H  -19.064   26.913   48.597
| 45> C  -23.210   27.459   45.431
| 46> H  -22.759   28.437   45.641
| 47> H  -23.010   27.206   44.382
| 48> O  -22.586   26.394   46.375
| 49> C  -24.749   27.584   45.602
| 50> C  -25.443   26.230   45.412
| 51> C  -25.191   25.555   46.782
| 52> C  -25.260   26.740   47.777
| 53> O  -25.083   27.972   46.976
| 54> H  -25.118   28.376   44.948
| 55> O  -26.963   26.439   45.176
| 56> H  -25.039   25.653   44.574
| 57> H  -25.924   24.774   47.011
| 58> H  -24.196   25.095   46.798
| 59> H  -24.477   26.693   48.541
| 60> H  -26.233   26.815   48.271
| 61> H  -27.389   27.015   46.004
| 62> *
| 63>
| 64>                          ****END OF INPUT****
 Total Charge           Charge          ....    0
 Multiplicity           Mult            ....    1
 Number of Electrons    NEL             ....  102
FINAL SINGLE POINT ENERGY      -652.830812892975
FINAL SINGLE POINT ENERGY      -652.853503819702
FINAL SINGLE POINT ENERGY      -652.857962858989
FINAL SINGLE POINT ENERGY      -652.859122200620
FINAL SINGLE POINT ENERGY      -652.859254166733
FINAL SINGLE POINT ENERGY      -652.859274007118
                    ***********************HURRAY********************

CARTESIAN COORDINATES (ANGSTROEM)
---------------------------------
  C    -21.109363   26.295751   46.203122
  C    -20.288983   27.554183   45.920368
  C    -20.306343   28.267368   47.297085
  C    -20.268580   27.087044   48.290282
  O    -20.681881   25.891492   47.511739
  H    -20.919211   25.456053   45.529103
  H    -19.270376   27.245856   45.659168
  H    -20.668759   28.173110   45.104200
  H    -19.458618   28.947179   47.424414
  H    -21.229302   28.844723   47.415852
  H    -20.954293   27.210665   49.131841
  H    -19.262863   26.880784   48.667379
  C    -23.182903   27.494502   45.407602
  H    -22.789720   28.498308   45.610635
  H    -23.010213   27.259777   44.344814
  O    -22.553303   26.514538   46.272557
  C    -24.685753   27.523326   45.681162
  C    -25.461042   26.215486   45.462860
  C    -25.223900   25.479272   46.809034
  C    -25.207387   26.634079   47.839643
  O    -24.972936   27.881201   47.069626
  H    -25.113864   28.316494   45.056024
  O    -26.868877   26.494650   45.217510
  H    -25.127720   25.646174   44.594115
  H    -26.018775   24.751423   46.996874
  H    -24.256713   24.976621   46.785188
  H    -24.403833   26.520742   48.571708
  H    -26.161435   26.756710   48.363378
  H    -27.198054   27.100488   45.914719

 Multiplicity           Mult            ....    1
 Number of Electrons    NEL             ....  102
 Basis Dimension        Dim             ....  149

ORBITAL ENERGIES
----------------

  NO   OCC          E(Eh)            E(eV)
   0   2.0000     -19.145134      -520.9656
   1   2.0000     -19.143883      -520.9315
   2   2.0000     -19.134959      -520.6887
   3   2.0000     -19.131877      -520.6048
   4   2.0000     -10.285473      -279.8820
   5   2.0000     -10.236607      -278.5522
   6   2.0000     -10.233526      -278.4684
   7   2.0000     -10.232886      -278.4510
   8   2.0000     -10.229038      -278.3463
   9   2.0000     -10.217975      -278.0452
  10   2.0000     -10.195480      -277.4331
  11   2.0000     -10.193177      -277.3704
  12   2.0000     -10.170320      -276.7485
  13   2.0000      -1.057331       -28.7715
  14   2.0000      -1.029680       -28.0190
  15   2.0000      -1.002267       -27.2731
  16   2.0000      -0.993286       -27.0287
  17   2.0000      -0.792659       -21.5693
  18   2.0000      -0.777132       -21.1468
  19   2.0000      -0.760909       -20.7054
  20   2.0000      -0.735075       -20.0024
  21   2.0000      -0.676784       -18.4162
  22   2.0000      -0.607470       -16.5301
  23   2.0000      -0.598687       -16.2911
  24   2.0000      -0.592640       -16.1265
  25   2.0000      -0.569569       -15.4988
  26   2.0000      -0.528171       -14.3723
  27   2.0000      -0.506702       -13.7881
  28   2.0000      -0.502979       -13.6867
  29   2.0000      -0.484596       -13.1865
  30   2.0000      -0.475683       -12.9440
  31   2.0000      -0.457905       -12.4602
  32   2.0000      -0.448968       -12.2170
  33   2.0000      -0.438023       -11.9192
  34   2.0000      -0.423527       -11.5248
  35   2.0000      -0.408391       -11.1129
  36   2.0000      -0.405368       -11.0306
  37   2.0000      -0.384788       -10.4706
  38   2.0000      -0.382925       -10.4199
  39   2.0000      -0.364979        -9.9316
  40   2.0000      -0.361954        -9.8493
  41   2.0000      -0.356656        -9.7051
  42   2.0000      -0.353956        -9.6316
  43   2.0000      -0.326937        -8.8964
  44   2.0000      -0.315290        -8.5795
  45   2.0000      -0.303277        -8.2526
  46   2.0000      -0.297302        -8.0900
  47   2.0000      -0.269979        -7.3465
  48   2.0000      -0.261826        -7.1247
  49   2.0000      -0.255513        -6.9529
  50   2.0000      -0.239665        -6.5216
  51   0.0000       0.068896         1.8748
  52   0.0000       0.078421         2.1339
  53   0.0000       0.096517         2.6264
  54   0.0000       0.102271         2.7829
  55   0.0000       0.109379         2.9764

MULLIKEN ATOMIC CHARGES
-----------------------
   0 C :    0.321380
   1 C :   -0.299054
   2 C :   -0.303243
   3 C :   -0.001825
   4 O :   -0.499397
   5 H :    0.149036
   6 H :    0.154137
   7 H :    0.146145
   8 H :    0.146171
   9 H :    0.165231
  10 H :    0.155747
  11 H :    0.144294
  12 C :    0.007440
  13 H :    0.139340
  14 H :    0.122759
  15 O :   -0.530731
  16 C :    0.061979
  17 C :    0.076409
  18 C :   -0.290308
  19 C :   -0.018755
  20 O :   -0.528931
  21 H :    0.155567
  22 O :   -0.603207
  23 H :    0.148795
  24 H :    0.146305
  25 H :    0.185216
  26 H :    0.156030
  27 H :    0.132128
  28 H :    0.361344
Sum of atomic charges:   -0.0000000

LOEWDIN ATOMIC CHARGES
----------------------
   0 C :    0.184534
   1 C :   -0.233523
   2 C :   -0.217590
   3 C :   -0.025888
   4 O :   -0.306283
   5 H :    0.101174
   6 H :    0.120509
   7 H :    0.115398
   8 H :    0.116473
   9 H :    0.118097
  10 H :    0.109950
  11 H :    0.103914
  12 C :   -0.039169
  13 H :    0.099091
  14 H :    0.091058
  15 O :   -0.336360
  16 C :    0.015296
  17 C :    0.039310
  18 C :   -0.242447
  19 C :   -0.032765
  20 O :   -0.331953
  21 H :    0.115164
  22 O :   -0.417394
  23 H :    0.114457
  24 H :    0.117020
  25 H :    0.135713
  26 H :    0.110597
  27 H :    0.094452
  28 H :    0.281165

  Mayer bond orders larger than 0.100000
B(  0-C ,  1-C ) :   0.9332 B(  0-C ,  4-O ) :   0.9382 B(  0-C ,  5-H ) :   0.9250
B(  0-C , 15-O ) :   0.8280 B(  1-C ,  2-C ) :   0.9494 B(  1-C ,  6-H ) :   0.9337
B(  1-C ,  7-H ) :   0.9278 B(  2-C ,  3-C ) :   0.9540 B(  2-C ,  8-H ) :   0.9450
B(  2-C ,  9-H ) :   0.9405 B(  3-C ,  4-O ) :   0.8342 B(  3-C , 10-H ) :   0.9340
B(  3-C , 11-H ) :   0.9397 B( 12-C , 13-H ) :   0.9066 B( 12-C , 14-H ) :   0.9093
B( 12-C , 15-O ) :   0.8440 B( 12-C , 16-C ) :   0.9011 B( 16-C , 17-C ) :   0.9079
B( 16-C , 20-O ) :   0.8787 B( 16-C , 21-H ) :   0.9227 B( 17-C , 18-C ) :   0.9249
B( 17-C , 22-O ) :   0.8896 B( 17-C , 23-H ) :   0.9368 B( 18-C , 19-C ) :   0.9470
B( 18-C , 24-H ) :   0.9374 B( 18-C , 25-H ) :   0.9152 B( 19-C , 20-O ) :   0.8349
B( 19-C , 26-H ) :   0.9334 B( 19-C , 27-H ) :   0.9377 B( 22-O , 28-H ) :   0.7970

FINAL SINGLE POINT ENERGY      -652.859274327924

DIPOLE MOMENT
-------------
                                X             Y             Z
Electronic contribution:     -3.45830      -1.81392      -0.68582
Nuclear contribution   :      4.52769       2.47582       0.51690
                        -----------------------------------------
Total Dipole Moment    :      1.06939       0.66191      -0.16892
                        -----------------------------------------
Magnitude (a.u.)       :      1.26895
Magnitude (Debye)      :      3.22542

Rotational constants in cm-1:     0.058456     0.014164     0.013661
Rotational constants in MHz :  1752.481163   424.624295   409.539206

                             ****ORCA TERMINATED NORMALLY****
TOTAL RUN TIME: 0 days 0 hours 19 minutes 11 seconds 159 msec
