                         Program Version 4.2.0 -  RELEASE  -
|  1> # Test redundant internal optimization
|  2> #
|  3> ! RKS B3LYP  Opt TightSCF SmallPrint
|  4>
|  5> %basis
|  6>         Basis "6-31G"
|  7> end
|  8>
|  9> %geom
| 10> Constraints
| 11> { D 4  0  15  12  315.0   C } # D for Dihedral angle
| 12> { D 0  15  12  16  270.0   C } # D for Dihedral angle
| 13> { D 0  4  3  2   C } # D for Dihedral angle
| 14> { D 4  3  2  1   C } # D for Dihedral angle
| 15> { D 3  2  1  0   C } # D for Dihedral angle
| 16> { D 2  1  0  4   C } # D for Dihedral angle
| 17> { D 1  0  4  3   C } # D for Dihedral angle
| 18> { D 16  20  19  18   C } # D for Dihedral angle
| 19> { D 20  19  18  17   C } # D for Dihedral angle
| 20> { D 19  18  17  16   C } # D for Dihedral angle
| 21> { D 18  17  16  20   C } # D for Dihedral angle
| 22> { D 17  16  20  19   C } # D for Dihedral angle
| 23> { D 15  12  16  20   C } # D for Dihedral angle
| 24> end
| 25> end
| 26>
| 27>
| 28> #%pal
| 29> #nprocs 8
| 30> #end
| 31>
| 32> * xyz 0 1
| 33> C  -21.048   26.222   46.251
| 34> C  -20.361   27.558   45.944
| 35> C  -20.329   28.222   47.341
| 36> C  -20.110   27.022   48.296
| 37> O  -20.473   25.807   47.535
| 38> H  -20.833   25.428   45.533
| 39> H  -19.344   27.382   45.576
| 40> H  -20.898   28.157   45.201
| 41> H  -19.543   28.978   47.434
| 42> H  -21.289   28.710   47.548
| 43> H  -20.733   27.082   49.195
| 44> H  -19.064   26.913   48.597
| 45> C  -23.319   25.255   47.135
| 46> H  -22.645   24.832   47.891
| 47> H  -24.208   25.645   47.648
| 48> O  -22.586   26.394   46.375
| 49> C  -23.781   24.106   46.196
| 50> C  -24.657   24.638   45.056
| 51> C  -23.596   25.212   44.086
| 52> C  -22.407   24.233   44.247
| 53> O  -22.629   23.505   45.516
| 54> H  -24.245   23.320   46.793
| 55> O  -25.432   23.469   44.390
| 56> H  -25.383   25.390   45.384
| 57> H  -23.952   25.270   43.052
| 58> H  -23.309   26.223   44.398
| 59> H  -21.442   24.748   44.292
| 60> H  -22.371   23.484   43.449
| 61> H  -24.725   22.703   44.052
| 62> *
| 63>
| 64>                          ****END OF INPUT****
 Total Charge           Charge          ....    0
 Multiplicity           Mult            ....    1
 Number of Electrons    NEL             ....  102
FINAL SINGLE POINT ENERGY      -652.831079306631
FINAL SINGLE POINT ENERGY      -652.855996001480
FINAL SINGLE POINT ENERGY      -652.863143294902
FINAL SINGLE POINT ENERGY      -652.866368517094
FINAL SINGLE POINT ENERGY      -652.866770963155
FINAL SINGLE POINT ENERGY      -652.866829741228
FINAL SINGLE POINT ENERGY      -652.866836710973
                    ***********************HURRAY********************

CARTESIAN COORDINATES (ANGSTROEM)
---------------------------------
  C    -20.976542   26.266461   46.294631
  C    -20.363621   27.650099   46.082251
  C    -20.377813   28.224134   47.516325
  C    -20.101619   26.986559   48.396577
  O    -20.399161   25.805828   47.537297
  H    -20.727923   25.503850   45.557493
  H    -19.339666   27.536775   45.708668
  H    -20.937676   28.251502   45.373849
  H    -19.630773   29.010348   47.661996
  H    -21.365716   28.640198   47.733667
  H    -20.731210   26.941277   49.288854
  H    -19.052094   26.896505   48.690616
  C    -23.169583   25.373614   47.036888
  H    -22.539975   24.942823   47.821703
  H    -24.035402   25.860726   47.497663
  O    -22.421413   26.445083   46.380822
  C    -23.659225   24.250825   46.118199
  C    -24.646672   24.635525   45.006174
  C    -23.686697   25.053638   43.861685
  C    -22.489822   24.086343   44.037459
  O    -22.584344   23.543155   45.415308
  H    -24.132568   23.506871   46.772894
  O    -25.481510   23.500607   44.639213
  H    -25.344247   25.422828   45.292429
  H    -24.173193   24.959991   42.887155
  H    -23.373546   26.089340   44.015824
  H    -21.524063   24.583156   43.908511
  H    -22.531456   23.230491   43.355766
  H    -24.914471   22.709447   44.521084

 Multiplicity           Mult            ....    1
 Number of Electrons    NEL             ....  102
 Basis Dimension        Dim             ....  149

ORBITAL ENERGIES
----------------

  NO   OCC          E(Eh)            E(eV)
   0   2.0000     -19.145775      -520.9830
   1   2.0000     -19.145571      -520.9775
   2   2.0000     -19.142753      -520.9008
   3   2.0000     -19.134218      -520.6685
   4   2.0000     -10.277603      -279.6678
   5   2.0000     -10.236089      -278.5381
   6   2.0000     -10.231187      -278.4047
   7   2.0000     -10.228567      -278.3334
   8   2.0000     -10.228348      -278.3275
   9   2.0000     -10.225402      -278.2473
  10   2.0000     -10.187417      -277.2137
  11   2.0000     -10.187055      -277.2039
  12   2.0000     -10.180447      -277.0240
  13   2.0000      -1.055181       -28.7129
  14   2.0000      -1.033170       -28.1140
  15   2.0000      -1.003237       -27.2995
  16   2.0000      -0.991616       -26.9832
  17   2.0000      -0.791725       -21.5439
  18   2.0000      -0.775323       -21.0976
  19   2.0000      -0.765705       -20.8359
  20   2.0000      -0.732637       -19.9361
  21   2.0000      -0.672827       -18.3086
  22   2.0000      -0.604126       -16.4391
  23   2.0000      -0.599209       -16.3053
  24   2.0000      -0.598593       -16.2885
  25   2.0000      -0.568719       -15.4756
  26   2.0000      -0.524855       -14.2820
  27   2.0000      -0.507272       -13.8036
  28   2.0000      -0.495086       -13.4720
  29   2.0000      -0.488683       -13.2977
  30   2.0000      -0.468531       -12.7494
  31   2.0000      -0.461073       -12.5464
  32   2.0000      -0.446879       -12.1602
  33   2.0000      -0.442088       -12.0298
  34   2.0000      -0.414604       -11.2819
  35   2.0000      -0.413188       -11.2434
  36   2.0000      -0.397940       -10.8285
  37   2.0000      -0.390099       -10.6151
  38   2.0000      -0.375194       -10.2096
  39   2.0000      -0.365218        -9.9381
  40   2.0000      -0.362804        -9.8724
  41   2.0000      -0.358393        -9.7524
  42   2.0000      -0.346640        -9.4326
  43   2.0000      -0.334403        -9.0996
  44   2.0000      -0.328056        -8.9269
  45   2.0000      -0.306121        -8.3300
  46   2.0000      -0.295523        -8.0416
  47   2.0000      -0.275385        -7.4936
  48   2.0000      -0.264270        -7.1912
  49   2.0000      -0.261268        -7.1095
  50   2.0000      -0.238969        -6.5027
  51   0.0000       0.065235         1.7751
  52   0.0000       0.084857         2.3091
  53   0.0000       0.099922         2.7190
  54   0.0000       0.104157         2.8343
  55   0.0000       0.108593         2.9550

MULLIKEN ATOMIC CHARGES
-----------------------
   0 C :    0.287934
   1 C :   -0.263250
   2 C :   -0.298227
   3 C :   -0.010322
   4 O :   -0.509578
   5 H :    0.166059
   6 H :    0.145449
   7 H :    0.156199
   8 H :    0.142725
   9 H :    0.161294
  10 H :    0.146685
  11 H :    0.146826
  12 C :   -0.030106
  13 H :    0.176071
  14 H :    0.140007
  15 O :   -0.531586
  16 C :    0.070022
  17 C :    0.083595
  18 C :   -0.294269
  19 C :   -0.025903
  20 O :   -0.525193
  21 H :    0.155249
  22 O :   -0.604592
  23 H :    0.153621
  24 H :    0.152352
  25 H :    0.168664
  26 H :    0.134259
  27 H :    0.143754
  28 H :    0.362261
Sum of atomic charges:    0.0000000

LOEWDIN ATOMIC CHARGES
----------------------
   0 C :    0.174434
   1 C :   -0.216003
   2 C :   -0.216194
   3 C :   -0.029730
   4 O :   -0.319179
   5 H :    0.104858
   6 H :    0.114324
   7 H :    0.123681
   8 H :    0.114422
   9 H :    0.118688
  10 H :    0.104718
  11 H :    0.105145
  12 C :   -0.048353
  13 H :    0.120704
  14 H :    0.110530
  15 O :   -0.337227
  16 C :    0.005583
  17 C :    0.038279
  18 C :   -0.242517
  19 C :   -0.036286
  20 O :   -0.330530
  21 H :    0.115550
  22 O :   -0.417511
  23 H :    0.116940
  24 H :    0.120939
  25 H :    0.126492
  26 H :    0.096311
  27 H :    0.100325
  28 H :    0.281605

  Mayer bond orders larger than 0.100000
B(  0-C ,  1-C ) :   0.9462 B(  0-C ,  4-O ) :   0.9005 B(  0-C ,  5-H ) :   0.9053
B(  0-C , 15-O ) :   0.8390 B(  1-C ,  2-C ) :   0.9544 B(  1-C ,  6-H ) :   0.9392
B(  1-C ,  7-H ) :   0.9356 B(  2-C ,  3-C ) :   0.9557 B(  2-C ,  8-H ) :   0.9451
B(  2-C ,  9-H ) :   0.9443 B(  3-C ,  4-O ) :   0.8331 B(  3-C , 10-H ) :   0.9356
B(  3-C , 11-H ) :   0.9405 B( 12-C , 13-H ) :   0.9064 B( 12-C , 14-H ) :   0.9305
B( 12-C , 15-O ) :   0.8640 B( 12-C , 16-C ) :   0.8891 B( 16-C , 17-C ) :   0.9082
B( 16-C , 20-O ) :   0.8642 B( 16-C , 21-H ) :   0.9172 B( 17-C , 18-C ) :   0.9222
B( 17-C , 22-O ) :   0.8891 B( 17-C , 23-H ) :   0.9351 B( 18-C , 19-C ) :   0.9432
B( 18-C , 24-H ) :   0.9371 B( 18-C , 25-H ) :   0.9224 B( 19-C , 20-O ) :   0.8453
B( 19-C , 26-H ) :   0.9258 B( 19-C , 27-H ) :   0.9383 B( 22-O , 28-H ) :   0.7965

FINAL SINGLE POINT ENERGY      -652.866836334123

DIPOLE MOMENT
-------------
                                X             Y             Z
Electronic contribution:     -2.44289      -4.79734       0.20922
Nuclear contribution   :      3.05138       5.73295      -0.22651
                        -----------------------------------------
Total Dipole Moment    :      0.60849       0.93561      -0.01730
                        -----------------------------------------
Magnitude (a.u.)       :      1.11621
Magnitude (Debye)      :      2.83717

Rotational constants in cm-1:     0.064228     0.013878     0.013536
Rotational constants in MHz :  1925.493641   416.064404   405.809376

                             ****ORCA TERMINATED NORMALLY****
TOTAL RUN TIME: 0 days 1 hours 22 minutes 56 seconds 137 msec
