                         Program Version 4.2.1 -  RELEASE  -
|  1> # Test redundant internal optimization
|  2> #
|  3> ! RKS B3LYP  Opt TightSCF SmallPrint
|  4>
|  5> %basis
|  6>         Basis "6-31G"
|  7> end
|  8>
|  9> %geom
| 10> Constraints
| 11> { D 4  0  19  14  210.0   C } # D for Dihedral angle
| 12> { D 0  19  14  12  345.0   C } # D for Dihedral angle
| 13> { D 0  4  3  2   C } # D for Dihedral angle
| 14> { D 4  3  2  1   C } # D for Dihedral angle
| 15> { D 3  2  1  0   C } # D for Dihedral angle
| 16> { D 2  1  0  4   C } # D for Dihedral angle
| 17> { D 1  0  4  3   C } # D for Dihedral angle
| 18> { D 14  15  16  17   C } # D for Dihedral angle
| 19> { D 15  16  17  12   C } # D for Dihedral angle
| 20> { D 16  17  12  14   C } # D for Dihedral angle
| 21> { D 17  12  14  15   C } # D for Dihedral angle
| 22> { D 12  14  15  16   C } # D for Dihedral angle
| 23> end
| 24> end
| 25>
| 26>
| 27> #%pal
| 28> #nprocs 8
| 29> #end
| 30>
| 31> * xyz 0 1
| 32> C  -21.048   26.222   46.251
| 33> C  -20.361   27.558   45.944
| 34> C  -20.329   28.222   47.341
| 35> C  -20.110   27.022   48.296
| 36> O  -20.473   25.807   47.535
| 37> H  -20.833   25.428   45.533
| 38> H  -19.344   27.382   45.576
| 39> H  -20.898   28.157   45.201
| 40> H  -19.543   28.978   47.434
| 41> H  -21.289   28.710   47.548
| 42> H  -20.733   27.082   49.195
| 43> H  -19.064   26.913   48.597
| 44> C  -22.236   26.089   43.961
| 45> H  -22.779   26.178   43.007
| 46> C  -23.197   26.114   45.155
| 47> C  -23.741   24.667   45.151
| 48> C  -22.519   23.833   44.691
| 49> O  -21.578   24.781   44.055
| 50> H  -21.450   26.845   43.997
| 51> O  -22.472   26.381   46.366
| 52> H  -23.988   26.866   45.054
| 53> H  -24.117   24.351   46.129
| 54> H  -24.564   24.575   44.431
| 55> H  -22.788   23.055   43.968
| 56> H  -21.990   23.369   45.530
| 57> *
| 58>
| 59>                          ****END OF INPUT****
 Total Charge           Charge          ....    0
 Multiplicity           Mult            ....    1
 Number of Electrons    NEL             ....   86
FINAL SINGLE POINT ENERGY      -538.411929321332
FINAL SINGLE POINT ENERGY      -538.427422227296
FINAL SINGLE POINT ENERGY      -538.429174435062
FINAL SINGLE POINT ENERGY      -538.429533077681
FINAL SINGLE POINT ENERGY      -538.429596036995
FINAL SINGLE POINT ENERGY      -538.429616060799
FINAL SINGLE POINT ENERGY      -538.429617839059
                    ***********************HURRAY********************

CARTESIAN COORDINATES (ANGSTROEM)
---------------------------------
  C    -20.830119   26.233980   46.260753
  C    -20.189010   27.602366   46.030371
  C    -20.358983   28.276330   47.416107
  C    -20.188568   27.091778   48.391306
  O    -20.396886   25.867184   47.579618
  H    -20.529556   25.445160   45.569696
  H    -19.127381   27.469876   45.788290
  H    -20.662070   28.168582   45.224757
  H    -19.629051   29.072188   47.590667
  H    -21.364523   28.699121   47.496734
  H    -20.915691   27.098312   49.207636
  H    -19.178128   27.025041   48.806305
  C    -22.372028   26.004439   43.779866
  H    -23.088525   26.120251   42.954113
  C    -23.109299   26.077824   45.120632
  C    -23.715551   24.662818   45.217801
  C    -22.643161   23.761861   44.562858
  O    -21.771633   24.664879   43.762048
  H    -21.564815   26.726440   43.652435
  O    -22.288983   26.356274   46.299132
  H    -23.879839   26.854985   45.121596
  H    -23.913509   24.405653   46.260012
  H    -24.657965   24.622055   44.659105
  H    -23.069041   23.006022   43.895454
  H    -21.999685   23.271582   45.298708

 Multiplicity           Mult            ....    1
 Number of Electrons    NEL             ....   86
 Basis Dimension        Dim             ....  127

ORBITAL ENERGIES
----------------

  NO   OCC          E(Eh)            E(eV)
   0   2.0000     -19.140500      -520.8395
   1   2.0000     -19.133323      -520.6442
   2   2.0000     -19.132108      -520.6111
   3   2.0000     -10.269550      -279.4487
   4   2.0000     -10.242413      -278.7102
   5   2.0000     -10.232163      -278.4313
   6   2.0000     -10.225340      -278.2456
   7   2.0000     -10.219254      -278.0800
   8   2.0000     -10.183986      -277.1203
   9   2.0000     -10.180968      -277.0382
  10   2.0000     -10.180569      -277.0274
  11   2.0000      -1.045796       -28.4575
  12   2.0000      -1.019818       -27.7507
  13   2.0000      -0.982971       -26.7480
  14   2.0000      -0.786811       -21.4102
  15   2.0000      -0.775565       -21.1042
  16   2.0000      -0.741697       -20.1826
  17   2.0000      -0.722529       -19.6610
  18   2.0000      -0.616810       -16.7842
  19   2.0000      -0.601716       -16.3735
  20   2.0000      -0.592168       -16.1137
  21   2.0000      -0.563739       -15.3401
  22   2.0000      -0.521759       -14.1978
  23   2.0000      -0.502152       -13.6642
  24   2.0000      -0.481711       -13.1080
  25   2.0000      -0.480177       -13.0663
  26   2.0000      -0.451723       -12.2920
  27   2.0000      -0.446880       -12.1602
  28   2.0000      -0.424363       -11.5475
  29   2.0000      -0.412756       -11.2316
  30   2.0000      -0.402914       -10.9639
  31   2.0000      -0.388088       -10.5604
  32   2.0000      -0.373802       -10.1717
  33   2.0000      -0.367884       -10.0106
  34   2.0000      -0.358231        -9.7480
  35   2.0000      -0.350565        -9.5394
  36   2.0000      -0.345650        -9.4056
  37   2.0000      -0.319387        -8.6910
  38   2.0000      -0.306004        -8.3268
  39   2.0000      -0.295095        -8.0299
  40   2.0000      -0.256802        -6.9879
  41   2.0000      -0.244101        -6.6423
  42   2.0000      -0.240786        -6.5521
  43   0.0000       0.077724         2.1150
  44   0.0000       0.093140         2.5345
  45   0.0000       0.099081         2.6961
  46   0.0000       0.106797         2.9061
  47   0.0000       0.120651         3.2831

MULLIKEN ATOMIC CHARGES
-----------------------
   0 C :    0.275936
   1 C :   -0.262083
   2 C :   -0.299076
   3 C :   -0.000342
   4 O :   -0.507308
   5 H :    0.181811
   6 H :    0.144463
   7 H :    0.137681
   8 H :    0.138507
   9 H :    0.158832
  10 H :    0.150590
  11 H :    0.139274
  12 C :   -0.043733
  13 H :    0.137912
  14 C :    0.082404
  15 C :   -0.283594
  16 C :   -0.021661
  17 O :   -0.520895
  18 H :    0.159852
  19 O :   -0.528624
  20 H :    0.146446
  21 H :    0.172543
  22 H :    0.137053
  23 H :    0.143178
  24 H :    0.160834
Sum of atomic charges:   -0.0000000

LOEWDIN ATOMIC CHARGES
----------------------
   0 C :    0.172057
   1 C :   -0.227677
   2 C :   -0.217357
   3 C :   -0.026063
   4 O :   -0.306569
   5 H :    0.115900
   6 H :    0.113366
   7 H :    0.110239
   8 H :    0.112655
   9 H :    0.117580
  10 H :    0.107126
  11 H :    0.100845
  12 C :   -0.056215
  13 H :    0.101589
  14 C :    0.041576
  15 C :   -0.231807
  16 C :   -0.034441
  17 O :   -0.335778
  18 H :    0.114537
  19 O :   -0.338271
  20 H :    0.109882
  21 H :    0.132469
  22 H :    0.110610
  23 H :    0.103311
  24 H :    0.110438

  Mayer bond orders larger than 0.100000
B(  0-C ,  1-C ) :   0.9331 B(  0-C ,  4-O ) :   0.9211 B(  0-C ,  5-H ) :   0.8945
B(  0-C , 19-O ) :   0.8124 B(  1-C ,  2-C ) :   0.9518 B(  1-C ,  6-H ) :   0.9348
B(  1-C ,  7-H ) :   0.9363 B(  2-C ,  3-C ) :   0.9555 B(  2-C ,  8-H ) :   0.9452
B(  2-C ,  9-H ) :   0.9441 B(  3-C ,  4-O ) :   0.8387 B(  3-C , 10-H ) :   0.9351
B(  3-C , 11-H ) :   0.9399 B( 12-C , 13-H ) :   0.9151 B( 12-C , 14-C ) :   0.9247
B( 12-C , 17-O ) :   0.8541 B( 12-C , 18-H ) :   0.9259 B( 14-C , 15-C ) :   0.9264
B( 14-C , 19-O ) :   0.8691 B( 14-C , 20-H ) :   0.9311 B( 15-C , 16-C ) :   0.9484
B( 15-C , 21-H ) :   0.9355 B( 15-C , 22-H ) :   0.9377 B( 16-C , 17-O ) :   0.8395
B( 16-C , 23-H ) :   0.9362 B( 16-C , 24-H ) :   0.9351

FINAL SINGLE POINT ENERGY      -538.429618391887

DIPOLE MOMENT
-------------
                                X             Y             Z
Electronic contribution:      0.34619      -2.40363       0.10712
Nuclear contribution   :     -0.85211       3.15702      -0.41925
                        -----------------------------------------
Total Dipole Moment    :     -0.50592       0.75339      -0.31213
                        -----------------------------------------
Magnitude (a.u.)       :      0.95968
Magnitude (Debye)      :      2.43930

Rotational constants in cm-1:     0.080125     0.022302     0.021399
Rotational constants in MHz :  2402.082706   668.589021   641.537882

                             ****ORCA TERMINATED NORMALLY****
TOTAL RUN TIME: 0 days 0 hours 9 minutes 49 seconds 983 msec
