                         Program Version 4.2.0 -  RELEASE  -
|  1> # Test redundant internal optimization
|  2> #
|  3> ! RKS B3LYP  Opt TightSCF SmallPrint
|  4>
|  5> %basis
|  6>         Basis "6-31G"
|  7> end
|  8>
|  9> %geom
| 10> Constraints
| 11> { D 4  0  15  12  150.0   C } # D for Dihedral angle
| 12> { D 0  15  12  16  90.0   C } # D for Dihedral angle
| 13> { D 0  4  3  2   C } # D for Dihedral angle
| 14> { D 4  3  2  1   C } # D for Dihedral angle
| 15> { D 3  2  1  0   C } # D for Dihedral angle
| 16> { D 2  1  0  4   C } # D for Dihedral angle
| 17> { D 1  0  4  3   C } # D for Dihedral angle
| 18> { D 16  20  19  18   C } # D for Dihedral angle
| 19> { D 20  19  18  17   C } # D for Dihedral angle
| 20> { D 19  18  17  16   C } # D for Dihedral angle
| 21> { D 18  17  16  20   C } # D for Dihedral angle
| 22> { D 17  16  20  19   C } # D for Dihedral angle
| 23> { D 15  12  16  20   C } # D for Dihedral angle
| 24> end
| 25> end
| 26>
| 27>
| 28> #%pal
| 29> #nprocs 8
| 30> #end
| 31>
| 32> * xyz 0 1
| 33> C  -21.048   26.222   46.251
| 34> C  -20.361   27.558   45.944
| 35> C  -20.329   28.222   47.341
| 36> C  -20.110   27.022   48.296
| 37> O  -20.473   25.807   47.535
| 38> H  -20.833   25.428   45.533
| 39> H  -19.344   27.382   45.576
| 40> H  -20.898   28.157   45.201
| 41> H  -19.543   28.978   47.434
| 42> H  -21.289   28.710   47.548
| 43> H  -20.733   27.082   49.195
| 44> H  -19.064   26.913   48.597
| 45> C  -23.210   27.459   45.431
| 46> H  -24.093   27.897   45.914
| 47> H  -22.491   28.265   45.234
| 48> O  -22.586   26.394   46.375
| 49> C  -23.644   26.867   44.062
| 50> C  -24.775   25.846   44.231
| 51> C  -26.007   26.767   44.397
| 52> C  -25.680   27.962   43.467
| 53> O  -24.225   27.912   43.213
| 54> H  -22.764   26.485   43.542
| 55> H  -24.868   25.236   43.325
| 56> O  -24.564   24.896   45.441
| 57> H  -26.946   26.273   44.129
| 58> H  -26.089   27.100   45.439
| 59> H  -25.933   28.927   43.919
| 60> H  -26.180   27.885   42.497
| 61> H  -24.468   25.486   46.359
| 62> *
| 63>
| 64>                          ****END OF INPUT****
 Total Charge           Charge          ....    0
 Multiplicity           Mult            ....    1
 Number of Electrons    NEL             ....  102
FINAL SINGLE POINT ENERGY      -652.820810564202
FINAL SINGLE POINT ENERGY      -652.846908899873
FINAL SINGLE POINT ENERGY      -652.854631820290
FINAL SINGLE POINT ENERGY      -652.857788110118
FINAL SINGLE POINT ENERGY      -652.859180033122
FINAL SINGLE POINT ENERGY      -652.859883906378
FINAL SINGLE POINT ENERGY      -652.860124060219
FINAL SINGLE POINT ENERGY      -652.860176171567
FINAL SINGLE POINT ENERGY      -652.860179533627
                    ***********************HURRAY********************

CARTESIAN COORDINATES (ANGSTROEM)
---------------------------------
  C    -21.122141   26.279749   46.229455
  C    -20.232769   27.487750   45.941830
  C    -20.236116   28.223604   47.305611
  C    -20.277417   27.060926   48.318347
  O    -20.740308   25.876154   47.548690
  H    -20.973720   25.418908   45.574915
  H    -19.229296   27.114180   45.708938
  H    -20.550904   28.113518   45.105131
  H    -19.355255   28.859235   47.435124
  H    -21.126889   28.854053   47.397238
  H    -20.970557   27.231374   49.145372
  H    -19.291049   26.806657   48.715760
  C    -23.200807   27.570443   45.413069
  H    -24.044205   27.951498   45.995762
  H    -22.536299   28.409516   45.190829
  O    -22.564271   26.574472   46.280671
  C    -23.679261   26.927575   44.105568
  C    -24.766943   25.854016   44.282710
  C    -26.043091   26.725983   44.460405
  C    -25.779444   27.930712   43.534405
  O    -24.308361   27.945203   43.265034
  H    -22.818445   26.548801   43.544050
  H    -24.848692   25.279143   43.353887
  O    -24.547507   24.906115   45.343702
  H    -26.948696   26.175193   44.192925
  H    -26.131496   27.022971   45.511137
  H    -26.062944   28.890482   43.977258
  H    -26.271102   27.832408   42.562335
  H    -23.890013   25.267360   45.985842

 Multiplicity           Mult            ....    1
 Number of Electrons    NEL             ....  102
 Basis Dimension        Dim             ....  149

ORBITAL ENERGIES
----------------

  NO   OCC          E(Eh)            E(eV)
   0   2.0000     -19.160187      -521.3752
   1   2.0000     -19.150024      -521.0986
   2   2.0000     -19.142101      -520.8831
   3   2.0000     -19.112987      -520.0908
   4   2.0000     -10.293499      -280.1004
   5   2.0000     -10.240485      -278.6578
   6   2.0000     -10.235073      -278.5105
   7   2.0000     -10.234201      -278.4868
   8   2.0000     -10.230909      -278.3972
   9   2.0000     -10.228155      -278.3222
  10   2.0000     -10.201880      -277.6073
  11   2.0000     -10.199261      -277.5360
  12   2.0000     -10.179911      -277.0095
  13   2.0000      -1.063862       -28.9492
  14   2.0000      -1.026595       -27.9351
  15   2.0000      -1.005823       -27.3698
  16   2.0000      -0.991414       -26.9777
  17   2.0000      -0.798945       -21.7404
  18   2.0000      -0.775314       -21.0974
  19   2.0000      -0.768850       -20.9215
  20   2.0000      -0.741041       -20.1648
  21   2.0000      -0.684854       -18.6358
  22   2.0000      -0.612087       -16.6557
  23   2.0000      -0.604707       -16.4549
  24   2.0000      -0.596711       -16.2373
  25   2.0000      -0.574229       -15.6256
  26   2.0000      -0.537127       -14.6160
  27   2.0000      -0.516082       -14.0433
  28   2.0000      -0.507159       -13.8005
  29   2.0000      -0.489708       -13.3256
  30   2.0000      -0.475898       -12.9498
  31   2.0000      -0.463520       -12.6130
  32   2.0000      -0.446678       -12.1547
  33   2.0000      -0.434128       -11.8132
  34   2.0000      -0.424578       -11.5534
  35   2.0000      -0.422603       -11.4996
  36   2.0000      -0.409425       -11.1410
  37   2.0000      -0.390672       -10.6307
  38   2.0000      -0.389236       -10.5916
  39   2.0000      -0.371768       -10.1163
  40   2.0000      -0.366779        -9.9806
  41   2.0000      -0.365496        -9.9456
  42   2.0000      -0.348602        -9.4859
  43   2.0000      -0.340526        -9.2662
  44   2.0000      -0.324787        -8.8379
  45   2.0000      -0.313405        -8.5282
  46   2.0000      -0.290719        -7.9109
  47   2.0000      -0.279396        -7.6028
  48   2.0000      -0.268415        -7.3040
  49   2.0000      -0.247308        -6.7296
  50   2.0000      -0.239018        -6.5040
  51   0.0000       0.056878         1.5477
  52   0.0000       0.072021         1.9598
  53   0.0000       0.092685         2.5221
  54   0.0000       0.095427         2.5967
  55   0.0000       0.098685         2.6854

MULLIKEN ATOMIC CHARGES
-----------------------
   0 C :    0.319820
   1 C :   -0.303190
   2 C :   -0.301322
   3 C :   -0.002814
   4 O :   -0.493646
   5 H :    0.161317
   6 H :    0.160567
   7 H :    0.153205
   8 H :    0.149307
   9 H :    0.157106
  10 H :    0.157111
  11 H :    0.148673
  12 C :   -0.039820
  13 H :    0.160727
  14 H :    0.153555
  15 O :   -0.553207
  16 C :    0.050437
  17 C :    0.124673
  18 C :   -0.303727
  19 C :   -0.020136
  20 O :   -0.521592
  21 H :    0.147744
  22 H :    0.147795
  23 O :   -0.639746
  24 H :    0.151852
  25 H :    0.146994
  26 H :    0.140042
  27 H :    0.150641
  28 H :    0.397633
Sum of atomic charges:   -0.0000000

LOEWDIN ATOMIC CHARGES
----------------------
   0 C :    0.184196
   1 C :   -0.231875
   2 C :   -0.217020
   3 C :   -0.025534
   4 O :   -0.301059
   5 H :    0.107125
   6 H :    0.124259
   7 H :    0.118194
   8 H :    0.118151
   9 H :    0.114505
  10 H :    0.111055
  11 H :    0.106401
  12 C :   -0.051083
  13 H :    0.114152
  14 H :    0.108278
  15 O :   -0.342354
  16 C :    0.004925
  17 C :    0.042240
  18 C :   -0.237745
  19 C :   -0.031846
  20 O :   -0.326817
  21 H :    0.108034
  22 H :    0.105980
  23 O :   -0.433127
  24 H :    0.121799
  25 H :    0.111707
  26 H :    0.101208
  27 H :    0.106632
  28 H :    0.289616

  Mayer bond orders larger than 0.100000
B(  0-C ,  1-C ) :   0.9378 B(  0-C ,  4-O ) :   0.9449 B(  0-C ,  5-H ) :   0.9245
B(  0-C , 15-O ) :   0.7942 B(  1-C ,  2-C ) :   0.9485 B(  1-C ,  6-H ) :   0.9325
B(  1-C ,  7-H ) :   0.9252 B(  2-C ,  3-C ) :   0.9533 B(  2-C ,  8-H ) :   0.9448
B(  2-C ,  9-H ) :   0.9446 B(  3-C ,  4-O ) :   0.8316 B(  3-C , 10-H ) :   0.9343
B(  3-C , 11-H ) :   0.9393 B( 12-C , 13-H ) :   0.9341 B( 12-C , 14-H ) :   0.9153
B( 12-C , 15-O ) :   0.8038 B( 12-C , 16-C ) :   0.8836 B( 16-C , 17-C ) :   0.9109
B( 16-C , 20-O ) :   0.8547 B( 16-C , 21-H ) :   0.9320 B( 17-C , 18-C ) :   0.8994
B( 17-C , 22-H ) :   0.9318 B( 17-C , 23-O ) :   0.9384 B( 18-C , 19-C ) :   0.9386
B( 18-C , 24-H ) :   0.9449 B( 18-C , 25-H ) :   0.9433 B( 19-C , 20-O ) :   0.8295
B( 19-C , 26-H ) :   0.9353 B( 19-C , 27-H ) :   0.9382 B( 23-O , 28-H ) :   0.7219

FINAL SINGLE POINT ENERGY      -652.860180613019

DIPOLE MOMENT
-------------
                                X             Y             Z
Electronic contribution:     -0.43948      -4.20172      -0.51730
Nuclear contribution   :      1.13479       5.63331       0.55486
                        -----------------------------------------
Total Dipole Moment    :      0.69531       1.43158       0.03756
                        -----------------------------------------
Magnitude (a.u.)       :      1.59194
Magnitude (Debye)      :      4.04640

Rotational constants in cm-1:     0.058848     0.013522     0.012110
Rotational constants in MHz :  1764.216135   405.367044   363.059001

                             ****ORCA TERMINATED NORMALLY****
TOTAL RUN TIME: 0 days 0 hours 28 minutes 20 seconds 937 msec
