                         Program Version 4.2.1 -  RELEASE  -
|  1> # Test redundant internal optimization
|  2> #
|  3> ! RKS B3LYP  Opt TightSCF SmallPrint
|  4>
|  5> %basis
|  6>         Basis "6-31G"
|  7> end
|  8>
|  9> %geom
| 10> Constraints
| 11> { D 4  0  19  14  180.0   C } # D for Dihedral angle
| 12> { D 0  19  14  12  135.0   C } # D for Dihedral angle
| 13> { D 0  4  3  2   C } # D for Dihedral angle
| 14> { D 4  3  2  1   C } # D for Dihedral angle
| 15> { D 3  2  1  0   C } # D for Dihedral angle
| 16> { D 2  1  0  4   C } # D for Dihedral angle
| 17> { D 1  0  4  3   C } # D for Dihedral angle
| 18> { D 14  15  16  17   C } # D for Dihedral angle
| 19> { D 15  16  17  12   C } # D for Dihedral angle
| 20> { D 16  17  12  14   C } # D for Dihedral angle
| 21> { D 17  12  14  15   C } # D for Dihedral angle
| 22> { D 12  14  15  16   C } # D for Dihedral angle
| 23> end
| 24> end
| 25>
| 26>
| 27> #%pal
| 28> #nprocs 8
| 29> #end
| 30>
| 31> * xyz 0 1
| 32> C  -21.048   26.222   46.251
| 33> C  -20.361   27.558   45.944
| 34> C  -20.329   28.222   47.341
| 35> C  -20.110   27.022   48.296
| 36> O  -20.473   25.807   47.535
| 37> H  -20.833   25.428   45.533
| 38> H  -19.344   27.382   45.576
| 39> H  -20.898   28.157   45.201
| 40> H  -19.543   28.978   47.434
| 41> H  -21.289   28.710   47.548
| 42> H  -20.733   27.082   49.195
| 43> H  -19.064   26.913   48.597
| 44> C  -24.389   25.953   44.929
| 45> H  -24.743   26.032   43.889
| 46> C  -23.122   26.788   45.152
| 47> C  -23.706   28.212   45.295
| 48> C  -25.052   27.970   46.023
| 49> O  -25.372   26.536   45.849
| 50> H  -24.289   24.899   45.194
| 51> O  -22.472   26.381   46.366
| 52> H  -22.403   26.704   44.330
| 53> H  -23.048   28.888   45.849
| 54> H  -23.878   28.652   44.304
| 55> H  -25.869   28.572   45.609
| 56> H  -24.985   28.157   47.099
| 57> *
| 58>
| 59>                          ****END OF INPUT****
 Total Charge           Charge          ....    0
 Multiplicity           Mult            ....    1
 Number of Electrons    NEL             ....   86
FINAL SINGLE POINT ENERGY      -538.424482271635
FINAL SINGLE POINT ENERGY      -538.427360706746
FINAL SINGLE POINT ENERGY      -538.427589586219
FINAL SINGLE POINT ENERGY      -538.427630830713
FINAL SINGLE POINT ENERGY      -538.427642009054
FINAL SINGLE POINT ENERGY      -538.427643531017
                    ***********************HURRAY********************

CARTESIAN COORDINATES (ANGSTROEM)
---------------------------------
  C    -21.000392   26.235429   46.216618
  C    -20.270738   27.551095   45.950092
  C    -20.307786   28.230173   47.343462
  C    -20.172899   27.032285   48.306667
  O    -20.522661   25.831482   47.504110
  H    -20.774037   25.428730   45.511281
  H    -19.238533   27.330914   45.653208
  H    -20.727573   28.158710   45.164051
  H    -19.506028   28.963368   47.472507
  H    -21.266465   28.736557   47.489051
  H    -20.850099   27.086919   49.162157
  H    -19.148777   26.883382   48.660747
  C    -24.403997   25.952504   44.949203
  H    -24.794414   26.016795   43.921770
  C    -23.148602   26.812611   45.109297
  C    -23.753179   28.221573   45.273226
  C    -25.057689   27.957175   46.063323
  O    -25.352690   26.517338   45.908356
  H    -24.237487   24.909874   45.222783
  O    -22.447773   26.398962   46.321967
  H    -22.484874   26.737911   44.237776
  H    -23.073656   28.899558   45.795067
  H    -23.970853   28.643796   44.284749
  H    -25.902766   28.542364   45.683886
  H    -24.939033   28.145497   47.133645

 Multiplicity           Mult            ....    1
 Number of Electrons    NEL             ....   86
 Basis Dimension        Dim             ....  127

ORBITAL ENERGIES
----------------

  NO   OCC          E(Eh)            E(eV)
   0   2.0000     -19.141673      -520.8714
   1   2.0000     -19.138064      -520.7732
   2   2.0000     -19.126407      -520.4560
   3   2.0000     -10.281581      -279.7761
   4   2.0000     -10.242885      -278.7231
   5   2.0000     -10.226544      -278.2784
   6   2.0000     -10.220516      -278.1144
   7   2.0000     -10.220415      -278.1116
   8   2.0000     -10.191335      -277.3203
   9   2.0000     -10.190648      -277.3016
  10   2.0000     -10.188829      -277.2521
  11   2.0000      -1.054484       -28.6940
  12   2.0000      -1.014505       -27.6061
  13   2.0000      -0.989389       -26.9226
  14   2.0000      -0.789813       -21.4919
  15   2.0000      -0.782839       -21.3021
  16   2.0000      -0.741501       -20.1773
  17   2.0000      -0.724339       -19.7103
  18   2.0000      -0.613253       -16.6875
  19   2.0000      -0.599662       -16.3176
  20   2.0000      -0.599127       -16.3031
  21   2.0000      -0.575040       -15.6476
  22   2.0000      -0.521655       -14.1950
  23   2.0000      -0.505906       -13.7664
  24   2.0000      -0.490598       -13.3499
  25   2.0000      -0.481363       -13.0985
  26   2.0000      -0.452290       -12.3074
  27   2.0000      -0.443297       -12.0627
  28   2.0000      -0.431984       -11.7549
  29   2.0000      -0.417864       -11.3707
  30   2.0000      -0.411302       -11.1921
  31   2.0000      -0.385031       -10.4772
  32   2.0000      -0.374924       -10.2022
  33   2.0000      -0.365620        -9.9490
  34   2.0000      -0.362957        -9.8766
  35   2.0000      -0.358646        -9.7592
  36   2.0000      -0.354180        -9.6377
  37   2.0000      -0.316339        -8.6080
  38   2.0000      -0.303732        -8.2650
  39   2.0000      -0.298331        -8.1180
  40   2.0000      -0.259368        -7.0578
  41   2.0000      -0.255469        -6.9517
  42   2.0000      -0.230418        -6.2700
  43   0.0000       0.070077         1.9069
  44   0.0000       0.085607         2.3295
  45   0.0000       0.094538         2.5725
  46   0.0000       0.108706         2.9580
  47   0.0000       0.118718         3.2305

MULLIKEN ATOMIC CHARGES
-----------------------
   0 C :    0.302801
   1 C :   -0.281793
   2 C :   -0.302852
   3 C :   -0.000036
   4 O :   -0.500247
   5 H :    0.141720
   6 H :    0.148583
   7 H :    0.141551
   8 H :    0.143666
   9 H :    0.158914
  10 H :    0.157290
  11 H :    0.142723
  12 C :    0.013593
  13 H :    0.118951
  14 C :    0.048781
  15 C :   -0.295581
  16 C :    0.005039
  17 O :   -0.516570
  18 H :    0.167697
  19 O :   -0.499329
  20 H :    0.123269
  21 H :    0.152816
  22 H :    0.139987
  23 H :    0.134184
  24 H :    0.154845
Sum of atomic charges:   -0.0000000

LOEWDIN ATOMIC CHARGES
----------------------
   0 C :    0.181989
   1 C :   -0.234494
   2 C :   -0.217321
   3 C :   -0.024085
   4 O :   -0.300170
   5 H :    0.096208
   6 H :    0.116483
   7 H :    0.112096
   8 H :    0.115052
   9 H :    0.114448
  10 H :    0.111100
  11 H :    0.102984
  12 C :   -0.035936
  13 H :    0.088511
  14 C :    0.033099
  15 C :   -0.233755
  16 C :   -0.027397
  17 O :   -0.326402
  18 H :    0.123328
  19 O :   -0.328519
  20 H :    0.095642
  21 H :    0.119094
  22 H :    0.111517
  23 H :    0.097830
  24 H :    0.108697

  Mayer bond orders larger than 0.100000
B(  0-C ,  1-C ) :   0.9245 B(  0-C ,  4-O ) :   0.9408 B(  0-C ,  5-H ) :   0.9203
B(  0-C , 19-O ) :   0.8416 B(  1-C ,  2-C ) :   0.9516 B(  1-C ,  6-H ) :   0.9332
B(  1-C ,  7-H ) :   0.9318 B(  2-C ,  3-C ) :   0.9549 B(  2-C ,  8-H ) :   0.9447
B(  2-C ,  9-H ) :   0.9409 B(  3-C ,  4-O ) :   0.8349 B(  3-C , 10-H ) :   0.9339
B(  3-C , 11-H ) :   0.9397 B( 12-C , 13-H ) :   0.9131 B( 12-C , 14-C ) :   0.9286
B( 12-C , 17-O ) :   0.8730 B( 12-C , 18-H ) :   0.9308 B( 14-C , 15-C ) :   0.9371
B( 14-C , 19-O ) :   0.8346 B( 14-C , 20-H ) :   0.9182 B( 15-C , 16-C ) :   0.9473
B( 15-C , 21-H ) :   0.9364 B( 15-C , 22-H ) :   0.9375 B( 16-C , 17-O ) :   0.8590
B( 16-C , 23-H ) :   0.9329 B( 16-C , 24-H ) :   0.9352

FINAL SINGLE POINT ENERGY      -538.427643799673

DIPOLE MOMENT
-------------
                                X             Y             Z
Electronic contribution:     -1.73191      -5.16675       1.35822
Nuclear contribution   :      2.68883       6.51344      -2.30902
                        -----------------------------------------
Total Dipole Moment    :      0.95692       1.34669      -0.95079
                        -----------------------------------------
Magnitude (a.u.)       :      1.90612
Magnitude (Debye)      :      4.84497

Rotational constants in cm-1:     0.077306     0.021242     0.020222
Rotational constants in MHz :  2317.589161   636.833901   606.253833

                             ****ORCA TERMINATED NORMALLY****
TOTAL RUN TIME: 0 days 0 hours 14 minutes 52 seconds 462 msec
