                         Program Version 4.2.1 -  RELEASE  -
|  1> # Test redundant internal optimization
|  2> #
|  3> ! RKS B3LYP  Opt TightSCF SmallPrint
|  4>
|  5> %basis
|  6>         Basis "6-31G"
|  7> end
|  8>
|  9> %geom
| 10> Constraints
| 11> { D 4  0  19  14  210.0   C } # D for Dihedral angle
| 12> { D 0  19  14  12  90.0   C } # D for Dihedral angle
| 13> { D 0  4  3  2   C } # D for Dihedral angle
| 14> { D 4  3  2  1   C } # D for Dihedral angle
| 15> { D 3  2  1  0   C } # D for Dihedral angle
| 16> { D 2  1  0  4   C } # D for Dihedral angle
| 17> { D 1  0  4  3   C } # D for Dihedral angle
| 18> { D 14  15  16  17   C } # D for Dihedral angle
| 19> { D 15  16  17  12   C } # D for Dihedral angle
| 20> { D 16  17  12  14   C } # D for Dihedral angle
| 21> { D 17  12  14  15   C } # D for Dihedral angle
| 22> { D 12  14  15  16   C } # D for Dihedral angle
| 23> end
| 24> end
| 25>
| 26>
| 27> #%pal
| 28> #nprocs 8
| 29> #end
| 30>
| 31> * xyz 0 1
| 32> C  -21.048   26.222   46.251
| 33> C  -20.361   27.558   45.944
| 34> C  -20.329   28.222   47.341
| 35> C  -20.110   27.022   48.296
| 36> O  -20.473   25.807   47.535
| 37> H  -20.833   25.428   45.533
| 38> H  -19.344   27.382   45.576
| 39> H  -20.898   28.157   45.201
| 40> H  -19.543   28.978   47.434
| 41> H  -21.289   28.710   47.548
| 42> H  -20.733   27.082   49.195
| 43> H  -19.064   26.913   48.597
| 44> C  -23.587   24.633   45.091
| 45> H  -23.878   24.339   44.070
| 46> C  -23.197   26.114   45.155
| 47> C  -24.582   26.802   45.185
| 48> C  -25.448   25.816   46.009
| 49> O  -24.732   24.521   46.001
| 50> H  -22.821   23.947   45.456
| 51> O  -22.472   26.381   46.366
| 52> H  -22.583   26.434   44.307
| 53> H  -24.551   27.802   45.629
| 54> H  -24.976   26.902   44.165
| 55> H  -26.447   25.676   45.583
| 56> H  -25.548   26.122   47.055
| 57> *
| 58>
| 59>                          ****END OF INPUT****
 Total Charge           Charge          ....    0
 Multiplicity           Mult            ....    1
 Number of Electrons    NEL             ....   86
FINAL SINGLE POINT ENERGY      -538.428229451054
FINAL SINGLE POINT ENERGY      -538.430305025159
FINAL SINGLE POINT ENERGY      -538.430593819249
FINAL SINGLE POINT ENERGY      -538.430629343745
FINAL SINGLE POINT ENERGY      -538.430641082007
                    ***********************HURRAY********************

CARTESIAN COORDINATES (ANGSTROEM)
---------------------------------
  C    -21.003106   26.207694   46.236479
  C    -20.322795   27.543813   45.946288
  C    -20.368271   28.233888   47.330427
  C    -20.181425   27.055325   48.309353
  O    -20.497527   25.831070   47.526326
  H    -20.761292   25.396374   45.542722
  H    -19.287347   27.365667   45.631718
  H    -20.829476   28.116804   45.164617
  H    -19.595571   29.000008   47.444387
  H    -21.346627   28.701698   47.474593
  H    -20.851234   27.099328   49.171309
  H    -19.149086   26.947220   48.654803
  C    -23.620508   24.621787   45.038240
  H    -23.957391   24.366020   44.021681
  C    -23.195463   26.088010   45.107276
  C    -24.556388   26.802207   45.221910
  C    -25.401887   25.823696   46.071610
  O    -24.714844   24.515661   46.001271
  H    -22.843467   23.921204   45.351649
  O    -22.447565   26.377842   46.325822
  H    -22.628946   26.411558   44.222982
  H    -24.442954   27.783970   45.686464
  H    -24.986076   26.933389   44.222314
  H    -26.424306   25.713980   45.693458
  H    -25.433449   26.111788   47.125300

 Multiplicity           Mult            ....    1
 Number of Electrons    NEL             ....   86
 Basis Dimension        Dim             ....  127

ORBITAL ENERGIES
----------------

  NO   OCC          E(Eh)            E(eV)
   0   2.0000     -19.139226      -520.8048
   1   2.0000     -19.138945      -520.7972
   2   2.0000     -19.125736      -520.4377
   3   2.0000     -10.279556      -279.7209
   4   2.0000     -10.242466      -278.7117
   5   2.0000     -10.223803      -278.2038
   6   2.0000     -10.221311      -278.1360
   7   2.0000     -10.217881      -278.0427
   8   2.0000     -10.187083      -277.2046
   9   2.0000     -10.186133      -277.1788
  10   2.0000     -10.186120      -277.1784
  11   2.0000      -1.052699       -28.6454
  12   2.0000      -1.013452       -27.5774
  13   2.0000      -0.989345       -26.9214
  14   2.0000      -0.789485       -21.4830
  15   2.0000      -0.779028       -21.1984
  16   2.0000      -0.737009       -20.0550
  17   2.0000      -0.723781       -19.6951
  18   2.0000      -0.611678       -16.6446
  19   2.0000      -0.599192       -16.3048
  20   2.0000      -0.593659       -16.1543
  21   2.0000      -0.574796       -15.6410
  22   2.0000      -0.524678       -14.2772
  23   2.0000      -0.500822       -13.6281
  24   2.0000      -0.487942       -13.2776
  25   2.0000      -0.477532       -12.9943
  26   2.0000      -0.448527       -12.2051
  27   2.0000      -0.442930       -12.0527
  28   2.0000      -0.435972       -11.8634
  29   2.0000      -0.415784       -11.3140
  30   2.0000      -0.406157       -11.0521
  31   2.0000      -0.379755       -10.3337
  32   2.0000      -0.371841       -10.1183
  33   2.0000      -0.363471        -9.8906
  34   2.0000      -0.359247        -9.7756
  35   2.0000      -0.356199        -9.6927
  36   2.0000      -0.349812        -9.5189
  37   2.0000      -0.313631        -8.5343
  38   2.0000      -0.307964        -8.3801
  39   2.0000      -0.301015        -8.1910
  40   2.0000      -0.261160        -7.1065
  41   2.0000      -0.248629        -6.7655
  42   2.0000      -0.231406        -6.2969
  43   0.0000       0.075514         2.0548
  44   0.0000       0.095666         2.6032
  45   0.0000       0.099676         2.7123
  46   0.0000       0.112802         3.0695
  47   0.0000       0.116565         3.1719

MULLIKEN ATOMIC CHARGES
-----------------------
   0 C :    0.293224
   1 C :   -0.261475
   2 C :   -0.298947
   3 C :   -0.000919
   4 O :   -0.501158
   5 H :    0.136045
   6 H :    0.143259
   7 H :    0.141446
   8 H :    0.141568
   9 H :    0.159884
  10 H :    0.155413
  11 H :    0.141217
  12 C :    0.008295
  13 H :    0.119225
  14 C :    0.047988
  15 C :   -0.286311
  16 C :    0.004110
  17 O :   -0.514527
  18 H :    0.163560
  19 O :   -0.500905
  20 H :    0.120866
  21 H :    0.158194
  22 H :    0.139229
  23 H :    0.133280
  24 H :    0.157442
Sum of atomic charges:    0.0000000

LOEWDIN ATOMIC CHARGES
----------------------
   0 C :    0.177523
   1 C :   -0.227263
   2 C :   -0.216758
   3 C :   -0.024882
   4 O :   -0.305047
   5 H :    0.095197
   6 H :    0.112638
   7 H :    0.113910
   8 H :    0.114147
   9 H :    0.118067
  10 H :    0.110040
  11 H :    0.102173
  12 C :   -0.044812
  13 H :    0.089176
  14 C :    0.033527
  15 C :   -0.223099
  16 C :   -0.027169
  17 O :   -0.325778
  18 H :    0.118939
  19 O :   -0.327279
  20 H :    0.092140
  21 H :    0.125738
  22 H :    0.111328
  23 H :    0.097267
  24 H :    0.110276

  Mayer bond orders larger than 0.100000
B(  0-C ,  1-C ) :   0.9334 B(  0-C ,  4-O ) :   0.9370 B(  0-C ,  5-H ) :   0.9183
B(  0-C , 19-O ) :   0.8335 B(  1-C ,  2-C ) :   0.9542 B(  1-C ,  6-H ) :   0.9343
B(  1-C ,  7-H ) :   0.9375 B(  2-C ,  3-C ) :   0.9551 B(  2-C ,  8-H ) :   0.9450
B(  2-C ,  9-H ) :   0.9440 B(  3-C ,  4-O ) :   0.8368 B(  3-C , 10-H ) :   0.9341
B(  3-C , 11-H ) :   0.9397 B( 12-C , 13-H ) :   0.9092 B( 12-C , 14-C ) :   0.9114
B( 12-C , 17-O ) :   0.8770 B( 12-C , 18-H ) :   0.9306 B( 14-C , 15-C ) :   0.9571
B( 14-C , 19-O ) :   0.8406 B( 14-C , 20-H ) :   0.9181 B( 15-C , 16-C ) :   0.9473
B( 15-C , 21-H ) :   0.9376 B( 15-C , 22-H ) :   0.9419 B( 16-C , 17-O ) :   0.8557
B( 16-C , 23-H ) :   0.9329 B( 16-C , 24-H ) :   0.9354

FINAL SINGLE POINT ENERGY      -538.430642343949

DIPOLE MOMENT
-------------
                                X             Y             Z
Electronic contribution:     -0.51498      -4.37214       1.50355
Nuclear contribution   :      0.96356       5.73217      -2.50248
                        -----------------------------------------
Total Dipole Moment    :      0.44858       1.36003      -0.99894
                        -----------------------------------------
Magnitude (a.u.)       :      1.74608
Magnitude (Debye)      :      4.43818

Rotational constants in cm-1:     0.081517     0.019938     0.019215
Rotational constants in MHz :  2443.816246   597.733333   576.059004

                             ****ORCA TERMINATED NORMALLY****
TOTAL RUN TIME: 0 days 0 hours 7 minutes 26 seconds 44 msec
