                         Program Version 4.2.0 -  RELEASE  -
|  1> # Test redundant internal optimization
|  2> #
|  3> ! RKS B3LYP  Opt TightSCF SmallPrint
|  4>
|  5> %basis
|  6>         Basis "6-31G"
|  7> end
|  8>
|  9> %geom
| 10> Constraints
| 11> { D 4  0  15  12  90.0   C } # D for Dihedral angle
| 12> { D 0  15  12  16  255.0   C } # D for Dihedral angle
| 13> { D 0  4  3  2   C } # D for Dihedral angle
| 14> { D 4  3  2  1   C } # D for Dihedral angle
| 15> { D 3  2  1  0   C } # D for Dihedral angle
| 16> { D 2  1  0  4   C } # D for Dihedral angle
| 17> { D 1  0  4  3   C } # D for Dihedral angle
| 18> { D 16  20  19  18   C } # D for Dihedral angle
| 19> { D 20  19  18  17   C } # D for Dihedral angle
| 20> { D 19  18  17  16   C } # D for Dihedral angle
| 21> { D 18  17  16  20   C } # D for Dihedral angle
| 22> { D 17  16  20  19   C } # D for Dihedral angle
| 23> { D 15  12  16  20   C } # D for Dihedral angle
| 24> end
| 25> end
| 26>
| 27>
| 28> #%pal
| 29> #nprocs 8
| 30> #end
| 31>
| 32> * xyz 0 1
| 33> C  -21.048   26.222   46.251
| 34> C  -20.361   27.558   45.944
| 35> C  -20.329   28.222   47.341
| 36> C  -20.110   27.022   48.296
| 37> O  -20.473   25.807   47.535
| 38> H  -20.833   25.428   45.533
| 39> H  -19.344   27.382   45.576
| 40> H  -20.898   28.157   45.201
| 41> H  -19.543   28.978   47.434
| 42> H  -21.289   28.710   47.548
| 43> H  -20.733   27.082   49.195
| 44> H  -19.064   26.913   48.597
| 45> C  -23.061   27.816   46.783
| 46> H  -22.236   28.526   46.647
| 47> H  -23.898   28.137   46.151
| 48> O  -22.586   26.394   46.375
| 49> C  -23.530   27.890   48.263
| 50> C  -24.098   29.274   48.597
| 51> C  -25.519   29.184   47.990
| 52> C  -25.910   27.705   48.229
| 53> O  -24.652   26.974   48.491
| 54> H  -22.715   27.567   48.913
| 55> O  -24.171   29.462   50.137
| 56> H  -23.507   30.095   48.176
| 57> H  -26.223   29.883   48.454
| 58> H  -25.484   29.406   46.917
| 59> H  -26.410   27.258   47.361
| 60> H  -26.547   27.578   49.109
| 61> H  -24.759   28.651   50.580
| 62> *
| 63>
| 64>                          ****END OF INPUT****
 Total Charge           Charge          ....    0
 Multiplicity           Mult            ....    1
 Number of Electrons    NEL             ....  102
FINAL SINGLE POINT ENERGY      -652.796880677822
FINAL SINGLE POINT ENERGY      -652.829586572424
FINAL SINGLE POINT ENERGY      -652.846265116273
FINAL SINGLE POINT ENERGY      -652.849663693141
FINAL SINGLE POINT ENERGY      -652.850180626730
FINAL SINGLE POINT ENERGY      -652.850258384684
FINAL SINGLE POINT ENERGY      -652.850266584699
FINAL SINGLE POINT ENERGY      -652.850266546069
                    ***********************HURRAY********************

CARTESIAN COORDINATES (ANGSTROEM)
---------------------------------
  C    -21.166385   26.363018   46.386644
  C    -20.213587   27.477712   45.926252
  C    -19.873699   28.194915   47.268765
  C    -19.852605   27.014374   48.275431
  O    -20.576358   25.900649   47.623863
  H    -21.156069   25.491585   45.730561
  H    -19.317149   27.013391   45.504322
  H    -20.649755   28.138923   45.172014
  H    -18.908542   28.709654   47.228324
  H    -20.629148   28.937434   47.536312
  H    -20.339120   27.253398   49.226126
  H    -18.837606   26.660143   48.477311
  C    -23.131776   27.945772   46.811666
  H    -22.405257   28.756447   46.686428
  H    -23.944435   28.110593   46.095849
  O    -22.579025   26.648862   46.462113
  C    -23.687930   27.951576   48.239194
  C    -24.334436   29.284105   48.645169
  C    -25.752575   29.148212   48.028189
  C    -26.058163   27.638167   48.187962
  O    -24.756299   26.966704   48.414698
  H    -22.895497   27.667564   48.938453
  O    -24.383967   29.416392   50.092114
  H    -23.796190   30.166858   48.295172
  H    -26.464387   29.788226   48.555161
  H    -25.737620   29.444627   46.973443
  H    -26.532756   27.204294   47.302733
  H    -26.686744   27.427010   49.059300
  H    -24.663922   28.560395   50.480428

 Multiplicity           Mult            ....    1
 Number of Electrons    NEL             ....  102
 Basis Dimension        Dim             ....  149

ORBITAL ENERGIES
----------------

  NO   OCC          E(Eh)            E(eV)
   0   2.0000     -19.141102      -520.8559
   1   2.0000     -19.140883      -520.8499
   2   2.0000     -19.139841      -520.8215
   3   2.0000     -19.138060      -520.7731
   4   2.0000     -10.277979      -279.6780
   5   2.0000     -10.245444      -278.7927
   6   2.0000     -10.235835      -278.5312
   7   2.0000     -10.234463      -278.4939
   8   2.0000     -10.229957      -278.3713
   9   2.0000     -10.228424      -278.3296
  10   2.0000     -10.196147      -277.4513
  11   2.0000     -10.194903      -277.4174
  12   2.0000     -10.191366      -277.3212
  13   2.0000      -1.049352       -28.5543
  14   2.0000      -1.036716       -28.2105
  15   2.0000      -1.007570       -27.4174
  16   2.0000      -0.994292       -27.0561
  17   2.0000      -0.790047       -21.4983
  18   2.0000      -0.787262       -21.4225
  19   2.0000      -0.770970       -20.9792
  20   2.0000      -0.734262       -19.9803
  21   2.0000      -0.681472       -18.5438
  22   2.0000      -0.608817       -16.5667
  23   2.0000      -0.605285       -16.4707
  24   2.0000      -0.601736       -16.3741
  25   2.0000      -0.573408       -15.6032
  26   2.0000      -0.522246       -14.2110
  27   2.0000      -0.519302       -14.1309
  28   2.0000      -0.502974       -13.6866
  29   2.0000      -0.492783       -13.4093
  30   2.0000      -0.472803       -12.8656
  31   2.0000      -0.460304       -12.5255
  32   2.0000      -0.449798       -12.2396
  33   2.0000      -0.442718       -12.0470
  34   2.0000      -0.427522       -11.6335
  35   2.0000      -0.419594       -11.4177
  36   2.0000      -0.402152       -10.9431
  37   2.0000      -0.394955       -10.7473
  38   2.0000      -0.383788       -10.4434
  39   2.0000      -0.374144       -10.1810
  40   2.0000      -0.365521        -9.9463
  41   2.0000      -0.361908        -9.8480
  42   2.0000      -0.348688        -9.4883
  43   2.0000      -0.335357        -9.1255
  44   2.0000      -0.314413        -8.5556
  45   2.0000      -0.308763        -8.4019
  46   2.0000      -0.293654        -7.9907
  47   2.0000      -0.271992        -7.4013
  48   2.0000      -0.271336        -7.3834
  49   2.0000      -0.254454        -6.9240
  50   2.0000      -0.237672        -6.4674
  51   0.0000       0.061378         1.6702
  52   0.0000       0.072887         1.9834
  53   0.0000       0.082690         2.2501
  54   0.0000       0.090921         2.4741
  55   0.0000       0.093775         2.5518

MULLIKEN ATOMIC CHARGES
-----------------------
   0 C :    0.305931
   1 C :   -0.293119
   2 C :   -0.316316
   3 C :   -0.008725
   4 O :   -0.497269
   5 H :    0.167522
   6 H :    0.160135
   7 H :    0.146820
   8 H :    0.147535
   9 H :    0.148152
  10 H :    0.145994
  11 H :    0.147706
  12 C :   -0.016860
  13 H :    0.123216
  14 H :    0.148283
  15 O :   -0.505675
  16 C :    0.066647
  17 C :    0.076819
  18 C :   -0.295414
  19 C :   -0.029824
  20 O :   -0.503784
  21 H :    0.170016
  22 O :   -0.602860
  23 H :    0.144770
  24 H :    0.164304
  25 H :    0.141356
  26 H :    0.151649
  27 H :    0.146027
  28 H :    0.366965
Sum of atomic charges:   -0.0000000

LOEWDIN ATOMIC CHARGES
----------------------
   0 C :    0.175676
   1 C :   -0.231963
   2 C :   -0.224542
   3 C :   -0.033617
   4 O :   -0.318152
   5 H :    0.113448
   6 H :    0.125165
   7 H :    0.115973
   8 H :    0.116679
   9 H :    0.106239
  10 H :    0.101982
  11 H :    0.104915
  12 C :   -0.044914
  13 H :    0.096145
  14 H :    0.108517
  15 O :   -0.307049
  16 C :    0.010133
  17 C :    0.033346
  18 C :   -0.241085
  19 C :   -0.038720
  20 O :   -0.316119
  21 H :    0.118419
  22 O :   -0.415004
  23 H :    0.111384
  24 H :    0.127364
  25 H :    0.111623
  26 H :    0.106937
  27 H :    0.102531
  28 H :    0.284689

  Mayer bond orders larger than 0.100000
B(  0-C ,  1-C ) :   0.9220 B(  0-C ,  4-O ) :   0.9002 B(  0-C ,  5-H ) :   0.9358
B(  0-C , 15-O ) :   0.9059 B(  1-C ,  2-C ) :   0.9525 B(  1-C ,  6-H ) :   0.9345
B(  1-C ,  7-H ) :   0.9342 B(  2-C ,  3-C ) :   0.9449 B(  2-C ,  8-H ) :   0.9455
B(  2-C ,  9-H ) :   0.9391 B(  3-C ,  4-O ) :   0.8517 B(  3-C , 10-H ) :   0.9302
B(  3-C , 11-H ) :   0.9388 B( 12-C , 13-H ) :   0.9023 B( 12-C , 14-H ) :   0.9348
B( 12-C , 15-O ) :   0.8576 B( 12-C , 16-C ) :   0.8812 B( 16-C , 17-C ) :   0.8933
B( 16-C , 20-O ) :   0.8697 B( 16-C , 21-H ) :   0.9221 B( 17-C , 18-C ) :   0.9107
B( 17-C , 22-O ) :   0.8935 B( 17-C , 23-H ) :   0.9347 B( 18-C , 19-C ) :   0.9386
B( 18-C , 24-H ) :   0.9367 B( 18-C , 25-H ) :   0.9349 B( 19-C , 20-O ) :   0.8511
B( 19-C , 26-H ) :   0.9336 B( 19-C , 27-H ) :   0.9372 B( 22-O , 28-H ) :   0.7929

FINAL SINGLE POINT ENERGY      -652.850264745728

DIPOLE MOMENT
-------------
                                X             Y             Z
Electronic contribution:     -1.63088      -4.67699       1.74708
Nuclear contribution   :      1.87586       5.96921      -2.45976
                        -----------------------------------------
Total Dipole Moment    :      0.24498       1.29222      -0.71268
                        -----------------------------------------
Magnitude (a.u.)       :      1.49592
Magnitude (Debye)      :      3.80232

Rotational constants in cm-1:     0.051026     0.014424     0.013352
Rotational constants in MHz :  1529.727051   432.421221   400.283269

                             ****ORCA TERMINATED NORMALLY****
TOTAL RUN TIME: 0 days 0 hours 26 minutes 7 seconds 97 msec
