                         Program Version 4.2.0 -  RELEASE  -
|  1> # Test redundant internal optimization
|  2> #
|  3> ! RKS B3LYP  Opt TightSCF SmallPrint
|  4>
|  5> %basis
|  6>         Basis "6-31G"
|  7> end
|  8>
|  9> %geom
| 10> Constraints
| 11> { D 4  0  15  12  165.0   C } # D for Dihedral angle
| 12> { D 0  15  12  16  255.0   C } # D for Dihedral angle
| 13> { D 0  4  3  2   C } # D for Dihedral angle
| 14> { D 4  3  2  1   C } # D for Dihedral angle
| 15> { D 3  2  1  0   C } # D for Dihedral angle
| 16> { D 2  1  0  4   C } # D for Dihedral angle
| 17> { D 1  0  4  3   C } # D for Dihedral angle
| 18> { D 16  20  19  18   C } # D for Dihedral angle
| 19> { D 20  19  18  17   C } # D for Dihedral angle
| 20> { D 19  18  17  16   C } # D for Dihedral angle
| 21> { D 18  17  16  20   C } # D for Dihedral angle
| 22> { D 17  16  20  19   C } # D for Dihedral angle
| 23> { D 15  12  16  20   C } # D for Dihedral angle
| 24> end
| 25> end
| 26>
| 27>
| 28> #%pal
| 29> #nprocs 8
| 30> #end
| 31>
| 32> * xyz 0 1
| 33> C  -21.048   26.222   46.251
| 34> C  -20.361   27.558   45.944
| 35> C  -20.329   28.222   47.341
| 36> C  -20.110   27.022   48.296
| 37> O  -20.473   25.807   47.535
| 38> H  -20.833   25.428   45.533
| 39> H  -19.344   27.382   45.576
| 40> H  -20.898   28.157   45.201
| 41> H  -19.543   28.978   47.434
| 42> H  -21.289   28.710   47.548
| 43> H  -20.733   27.082   49.195
| 44> H  -19.064   26.913   48.597
| 45> C  -23.260   27.170   45.210
| 46> H  -22.565   27.225   44.363
| 47> H  -24.167   26.650   44.877
| 48> O  -22.586   26.394   46.375
| 49> C  -23.663   28.618   45.607
| 50> C  -24.426   29.313   44.475
| 51> C  -25.842   28.710   44.635
| 52> C  -25.982   28.545   46.169
| 53> O  -24.613   28.597   46.724
| 54> H  -22.776   29.154   45.950
| 55> H  -24.446   30.395   44.642
| 56> O  -23.814   29.046   43.072
| 57> H  -26.625   29.346   44.210
| 58> H  -25.895   27.735   44.135
| 59> H  -26.446   27.592   46.447
| 60> H  -26.548   29.362   46.627
| 61> H  -23.785   27.968   42.881
| 62> *
| 63>
| 64>                          ****END OF INPUT****
 Total Charge           Charge          ....    0
 Multiplicity           Mult            ....    1
 Number of Electrons    NEL             ....  102
FINAL SINGLE POINT ENERGY      -652.820703068890
FINAL SINGLE POINT ENERGY      -652.843410905546
FINAL SINGLE POINT ENERGY      -652.848067172054
FINAL SINGLE POINT ENERGY      -652.848946002897
FINAL SINGLE POINT ENERGY      -652.849160742591
FINAL SINGLE POINT ENERGY      -652.849201676755
FINAL SINGLE POINT ENERGY      -652.849208364650
FINAL SINGLE POINT ENERGY      -652.849209012429
                    ***********************HURRAY********************

CARTESIAN COORDINATES (ANGSTROEM)
---------------------------------
  C    -21.050042   26.256837   46.213619
  C    -20.282660   27.550613   45.938905
  C    -20.333494   28.259573   47.319808
  C    -20.248412   27.075076   48.305340
  O    -20.609072   25.869178   47.518782
  H    -20.815460   25.431830   45.533357
  H    -19.250080   27.292504   45.677010
  H    -20.691273   28.156655   45.125684
  H    -19.513562   28.972279   47.450490
  H    -21.279052   28.794073   47.443672
  H    -20.943233   27.163494   49.143753
  H    -19.236108   26.908231   48.685061
  C    -23.185195   27.116626   45.204930
  H    -22.560656   27.172889   44.302629
  H    -24.063031   26.501707   44.971738
  O    -22.503085   26.416092   46.281022
  C    -23.626579   28.530546   45.592696
  C    -24.400509   29.251834   44.476433
  C    -25.842218   28.688001   44.669252
  C    -25.939625   28.529055   46.202937
  O    -24.549263   28.539362   46.722690
  H    -22.757127   29.108954   45.913465
  H    -24.385469   30.328223   44.663671
  O    -23.850064   29.101382   43.144042
  H    -26.605909   29.354565   44.259944
  H    -25.927492   27.719444   44.158740
  H    -26.425574   27.596116   46.505491
  H    -26.462871   29.367122   46.673381
  H    -24.126884   28.248742   42.751457

 Multiplicity           Mult            ....    1
 Number of Electrons    NEL             ....  102
 Basis Dimension        Dim             ....  149

ORBITAL ENERGIES
----------------

  NO   OCC          E(Eh)            E(eV)
   0   2.0000     -19.155069      -521.2359
   1   2.0000     -19.138886      -520.7956
   2   2.0000     -19.135479      -520.7029
   3   2.0000     -19.133273      -520.6428
   4   2.0000     -10.275985      -279.6238
   5   2.0000     -10.249440      -278.9014
   6   2.0000     -10.232681      -278.4454
   7   2.0000     -10.232571      -278.4424
   8   2.0000     -10.231145      -278.4036
   9   2.0000     -10.220377      -278.1106
  10   2.0000     -10.199995      -277.5560
  11   2.0000     -10.187133      -277.2060
  12   2.0000     -10.184548      -277.1356
  13   2.0000      -1.047934       -28.5157
  14   2.0000      -1.037327       -28.2271
  15   2.0000      -1.018606       -27.7177
  16   2.0000      -0.987430       -26.8693
  17   2.0000      -0.786243       -21.3948
  18   2.0000      -0.783469       -21.3193
  19   2.0000      -0.768829       -20.9209
  20   2.0000      -0.731413       -19.9028
  21   2.0000      -0.683111       -18.5884
  22   2.0000      -0.615744       -16.7553
  23   2.0000      -0.600574       -16.3424
  24   2.0000      -0.591392       -16.0926
  25   2.0000      -0.574240       -15.6259
  26   2.0000      -0.525383       -14.2964
  27   2.0000      -0.510631       -13.8950
  28   2.0000      -0.503641       -13.7048
  29   2.0000      -0.495402       -13.4806
  30   2.0000      -0.464933       -12.6515
  31   2.0000      -0.453598       -12.3430
  32   2.0000      -0.447399       -12.1743
  33   2.0000      -0.436516       -11.8782
  34   2.0000      -0.430322       -11.7097
  35   2.0000      -0.424171       -11.5423
  36   2.0000      -0.405467       -11.0333
  37   2.0000      -0.403755       -10.9867
  38   2.0000      -0.379160       -10.3175
  39   2.0000      -0.375587       -10.2202
  40   2.0000      -0.359130        -9.7724
  41   2.0000      -0.352651        -9.5961
  42   2.0000      -0.350799        -9.5457
  43   2.0000      -0.331527        -9.0213
  44   2.0000      -0.321107        -8.7378
  45   2.0000      -0.306790        -8.3482
  46   2.0000      -0.292493        -7.9591
  47   2.0000      -0.275748        -7.5035
  48   2.0000      -0.262721        -7.1490
  49   2.0000      -0.252314        -6.8658
  50   2.0000      -0.233548        -6.3552
  51   0.0000       0.047907         1.3036
  52   0.0000       0.076779         2.0893
  53   0.0000       0.081426         2.2157
  54   0.0000       0.090937         2.4745
  55   0.0000       0.099470         2.7067

MULLIKEN ATOMIC CHARGES
-----------------------
   0 C :    0.311064
   1 C :   -0.297277
   2 C :   -0.308467
   3 C :    0.000015
   4 O :   -0.498984
   5 H :    0.141862
   6 H :    0.150401
   7 H :    0.147172
   8 H :    0.142303
   9 H :    0.172600
  10 H :    0.159771
  11 H :    0.140081
  12 C :   -0.034842
  13 H :    0.129293
  14 H :    0.141666
  15 O :   -0.499257
  16 C :    0.094335
  17 C :    0.076009
  18 C :   -0.324036
  19 C :   -0.011299
  20 O :   -0.504762
  21 H :    0.152587
  22 H :    0.170702
  23 O :   -0.602811
  24 H :    0.158555
  25 H :    0.133850
  26 H :    0.150479
  27 H :    0.150930
  28 H :    0.358061
Sum of atomic charges:   -0.0000000

LOEWDIN ATOMIC CHARGES
----------------------
   0 C :    0.184039
   1 C :   -0.236810
   2 C :   -0.219294
   3 C :   -0.024389
   4 O :   -0.301456
   5 H :    0.096384
   6 H :    0.118431
   7 H :    0.113914
   8 H :    0.114479
   9 H :    0.118757
  10 H :    0.112272
  11 H :    0.101526
  12 C :   -0.054032
  13 H :    0.097153
  14 H :    0.104516
  15 O :   -0.324981
  16 C :    0.012049
  17 C :    0.032211
  18 C :   -0.241035
  19 C :   -0.029178
  20 O :   -0.313499
  21 H :    0.110497
  22 H :    0.119646
  23 O :   -0.410191
  24 H :    0.122955
  25 H :    0.104143
  26 H :    0.106266
  27 H :    0.106614
  28 H :    0.279014

  Mayer bond orders larger than 0.100000
B(  0-C ,  1-C ) :   0.9272 B(  0-C ,  4-O ) :   0.9402 B(  0-C ,  5-H ) :   0.9232
B(  0-C , 15-O ) :   0.8418 B(  1-C ,  2-C ) :   0.9504 B(  1-C ,  6-H ) :   0.9327
B(  1-C ,  7-H ) :   0.9278 B(  2-C ,  3-C ) :   0.9534 B(  2-C ,  8-H ) :   0.9449
B(  2-C ,  9-H ) :   0.9325 B(  3-C ,  4-O ) :   0.8341 B(  3-C , 10-H ) :   0.9335
B(  3-C , 11-H ) :   0.9401 B( 12-C , 13-H ) :   0.9040 B( 12-C , 14-H ) :   0.9335
B( 12-C , 15-O ) :   0.8673 B( 12-C , 16-C ) :   0.8845 B( 16-C , 17-C ) :   0.8680
B( 16-C , 20-O ) :   0.8735 B( 16-C , 21-H ) :   0.9232 B( 17-C , 18-C ) :   0.9275
B( 17-C , 22-H ) :   0.9311 B( 17-C , 23-O ) :   0.8943 B( 18-C , 19-C ) :   0.9374
B( 18-C , 24-H ) :   0.9411 B( 18-C , 25-H ) :   0.9402 B( 19-C , 20-O ) :   0.8489
B( 19-C , 26-H ) :   0.9310 B( 19-C , 27-H ) :   0.9374 B( 23-O , 28-H ) :   0.7983

FINAL SINGLE POINT ENERGY      -652.849209057707

DIPOLE MOMENT
-------------
                                X             Y             Z
Electronic contribution:     -0.26765      -2.81234       0.85445
Nuclear contribution   :     -0.09474       3.43957      -1.85448
                        -----------------------------------------
Total Dipole Moment    :     -0.36239       0.62723      -1.00003
                        -----------------------------------------
Magnitude (a.u.)       :      1.23483
Magnitude (Debye)      :      3.13869

Rotational constants in cm-1:     0.051870     0.014172     0.013177
Rotational constants in MHz :  1555.033458   424.870728   395.024865

                             ****ORCA TERMINATED NORMALLY****
TOTAL RUN TIME: 0 days 0 hours 26 minutes 32 seconds 691 msec
