                         Program Version 4.2.0 -  RELEASE  -
|  1> # Test redundant internal optimization
|  2> #
|  3> ! RKS B3LYP  Opt TightSCF SmallPrint
|  4>
|  5> %basis
|  6>         Basis "6-31G"
|  7> end
|  8>
|  9> %geom
| 10> Constraints
| 11> { D 4  0  15  12  315.0   C } # D for Dihedral angle
| 12> { D 0  15  12  16  135.0   C } # D for Dihedral angle
| 13> { D 0  4  3  2   C } # D for Dihedral angle
| 14> { D 4  3  2  1   C } # D for Dihedral angle
| 15> { D 3  2  1  0   C } # D for Dihedral angle
| 16> { D 2  1  0  4   C } # D for Dihedral angle
| 17> { D 1  0  4  3   C } # D for Dihedral angle
| 18> { D 16  20  19  18   C } # D for Dihedral angle
| 19> { D 20  19  18  17   C } # D for Dihedral angle
| 20> { D 19  18  17  16   C } # D for Dihedral angle
| 21> { D 18  17  16  20   C } # D for Dihedral angle
| 22> { D 17  16  20  19   C } # D for Dihedral angle
| 23> { D 15  12  16  20   C } # D for Dihedral angle
| 24> end
| 25> end
| 26>
| 27>
| 28> #%pal
| 29> #nprocs 8
| 30> #end
| 31>
| 32> * xyz 0 1
| 33> C  -21.048   26.222   46.251
| 34> C  -20.361   27.558   45.944
| 35> C  -20.329   28.222   47.341
| 36> C  -20.110   27.022   48.296
| 37> O  -20.473   25.807   47.535
| 38> H  -20.833   25.428   45.533
| 39> H  -19.344   27.382   45.576
| 40> H  -20.898   28.157   45.201
| 41> H  -19.543   28.978   47.434
| 42> H  -21.289   28.710   47.548
| 43> H  -20.733   27.082   49.195
| 44> H  -19.064   26.913   48.597
| 45> C  -23.319   25.255   47.135
| 46> H  -23.841   24.615   46.412
| 47> H  -22.599   24.634   47.684
| 48> O  -22.586   26.394   46.375
| 49> C  -24.360   25.788   48.157
| 50> C  -25.503   26.527   47.453
| 51> C  -26.373   25.352   46.947
| 52> C  -26.221   24.294   48.069
| 53> O  -25.021   24.673   48.844
| 54> H  -23.845   26.374   48.921
| 55> O  -26.290   27.390   48.477
| 56> H  -25.160   27.181   46.644
| 57> H  -27.416   25.637   46.780
| 58> H  -25.974   24.970   45.999
| 59> H  -26.089   23.281   47.675
| 60> H  -27.067   24.296   48.761
| 61> H  -26.645   26.756   49.298
| 62> *
| 63>
| 64>                          ****END OF INPUT****
 Total Charge           Charge          ....    0
 Multiplicity           Mult            ....    1
 Number of Electrons    NEL             ....  102
FINAL SINGLE POINT ENERGY      -652.841608865935
FINAL SINGLE POINT ENERGY      -652.864802100425
FINAL SINGLE POINT ENERGY      -652.868456329849
FINAL SINGLE POINT ENERGY      -652.869055122018
FINAL SINGLE POINT ENERGY      -652.869129921341
FINAL SINGLE POINT ENERGY      -652.869141043161
FINAL SINGLE POINT ENERGY      -652.869143180094
                    ***********************HURRAY********************

CARTESIAN COORDINATES (ANGSTROEM)
---------------------------------
  C    -21.108092   26.151134   46.287741
  C    -20.588489   27.560550   46.006416
  C    -20.587275   28.183057   47.420029
  C    -20.205354   26.996661   48.331178
  O    -20.460501   25.769592   47.522997
  H    -20.834524   25.382951   45.557697
  H    -19.573573   27.494937   45.598575
  H    -21.223813   28.098696   45.299876
  H    -19.884598   29.016858   47.511076
  H    -21.589677   28.548464   47.660142
  H    -20.798843   26.945194   49.247309
  H    -19.142633   26.979287   48.588604
  C    -23.216417   25.137334   47.109979
  H    -23.701440   24.481736   46.375048
  H    -22.491287   24.557604   47.686560
  O    -22.550029   26.232222   46.405815
  C    -24.236384   25.752918   48.064946
  C    -25.360200   26.551280   47.390456
  C    -26.320194   25.421862   46.939474
  C    -26.191605   24.373301   48.071860
  O    -24.935310   24.690613   48.798196
  H    -23.714555   26.365698   48.805508
  O    -25.996311   27.452376   48.340923
  H    -25.005220   27.181049   46.576262
  H    -27.337852   25.802786   46.825063
  H    -25.997024   25.011038   45.977235
  H    -26.135270   23.346689   47.697938
  H    -27.007863   24.435755   48.798845
  H    -26.139665   26.976357   49.186254

 Multiplicity           Mult            ....    1
 Number of Electrons    NEL             ....  102
 Basis Dimension        Dim             ....  149

ORBITAL ENERGIES
----------------

  NO   OCC          E(Eh)            E(eV)
   0   2.0000     -19.147157      -521.0206
   1   2.0000     -19.145164      -520.9664
   2   2.0000     -19.142526      -520.8946
   3   2.0000     -19.133496      -520.6489
   4   2.0000     -10.280629      -279.7501
   5   2.0000     -10.233050      -278.4555
   6   2.0000     -10.229679      -278.3637
   7   2.0000     -10.229545      -278.3601
   8   2.0000     -10.229149      -278.3493
   9   2.0000     -10.223840      -278.2048
  10   2.0000     -10.186998      -277.2023
  11   2.0000     -10.186788      -277.1966
  12   2.0000     -10.185002      -277.1480
  13   2.0000      -1.056596       -28.7514
  14   2.0000      -1.033292       -28.1173
  15   2.0000      -1.001879       -27.2625
  16   2.0000      -0.994567       -27.0636
  17   2.0000      -0.792039       -21.5525
  18   2.0000      -0.776895       -21.1404
  19   2.0000      -0.765499       -20.8303
  20   2.0000      -0.730444       -19.8764
  21   2.0000      -0.671244       -18.2655
  22   2.0000      -0.601548       -16.3689
  23   2.0000      -0.601420       -16.3655
  24   2.0000      -0.591137       -16.0857
  25   2.0000      -0.578071       -15.7301
  26   2.0000      -0.522146       -14.2083
  27   2.0000      -0.512356       -13.9419
  28   2.0000      -0.497207       -13.5297
  29   2.0000      -0.489114       -13.3095
  30   2.0000      -0.471850       -12.8397
  31   2.0000      -0.455099       -12.3839
  32   2.0000      -0.452858       -12.3229
  33   2.0000      -0.434564       -11.8251
  34   2.0000      -0.420994       -11.4558
  35   2.0000      -0.411603       -11.2003
  36   2.0000      -0.400539       -10.8992
  37   2.0000      -0.389817       -10.6075
  38   2.0000      -0.374293       -10.1850
  39   2.0000      -0.364278        -9.9125
  40   2.0000      -0.359905        -9.7935
  41   2.0000      -0.356498        -9.7008
  42   2.0000      -0.350269        -9.5313
  43   2.0000      -0.338508        -9.2113
  44   2.0000      -0.324181        -8.8214
  45   2.0000      -0.307105        -8.3568
  46   2.0000      -0.295566        -8.0428
  47   2.0000      -0.275600        -7.4995
  48   2.0000      -0.262786        -7.1508
  49   2.0000      -0.260116        -7.0781
  50   2.0000      -0.243019        -6.6129
  51   0.0000       0.066851         1.8191
  52   0.0000       0.076492         2.0814
  53   0.0000       0.093417         2.5420
  54   0.0000       0.101131         2.7519
  55   0.0000       0.103920         2.8278

MULLIKEN ATOMIC CHARGES
-----------------------
   0 C :    0.293442
   1 C :   -0.262398
   2 C :   -0.299600
   3 C :   -0.013023
   4 O :   -0.512146
   5 H :    0.147838
   6 H :    0.145894
   7 H :    0.160586
   8 H :    0.143677
   9 H :    0.164377
  10 H :    0.149900
  11 H :    0.148206
  12 C :   -0.020677
  13 H :    0.129816
  14 H :    0.181004
  15 O :   -0.536927
  16 C :    0.062950
  17 C :    0.088779
  18 C :   -0.295146
  19 C :   -0.031759
  20 O :   -0.528584
  21 H :    0.156622
  22 O :   -0.606885
  23 H :    0.175303
  24 H :    0.160002
  25 H :    0.144765
  26 H :    0.146196
  27 H :    0.145950
  28 H :    0.361839
Sum of atomic charges:   -0.0000000

LOEWDIN ATOMIC CHARGES
----------------------
   0 C :    0.176452
   1 C :   -0.214649
   2 C :   -0.216545
   3 C :   -0.029697
   4 O :   -0.325953
   5 H :    0.097496
   6 H :    0.114625
   7 H :    0.126025
   8 H :    0.115304
   9 H :    0.119805
  10 H :    0.105811
  11 H :    0.105738
  12 C :   -0.046490
  13 H :    0.095096
  14 H :    0.124287
  15 O :   -0.338993
  16 C :    0.016367
  17 C :    0.036631
  18 C :   -0.239884
  19 C :   -0.038675
  20 O :   -0.332102
  21 H :    0.113335
  22 O :   -0.417596
  23 H :    0.126936
  24 H :    0.125755
  25 H :    0.113983
  26 H :    0.103948
  27 H :    0.102071
  28 H :    0.280917

  Mayer bond orders larger than 0.100000
B(  0-C ,  1-C ) :   0.9483 B(  0-C ,  4-O ) :   0.9042 B(  0-C ,  5-H ) :   0.9223
B(  0-C , 15-O ) :   0.8505 B(  1-C ,  2-C ) :   0.9542 B(  1-C ,  6-H ) :   0.9391
B(  1-C ,  7-H ) :   0.9354 B(  2-C ,  3-C ) :   0.9556 B(  2-C ,  8-H ) :   0.9446
B(  2-C ,  9-H ) :   0.9431 B(  3-C ,  4-O ) :   0.8295 B(  3-C , 10-H ) :   0.9346
B(  3-C , 11-H ) :   0.9403 B( 12-C , 13-H ) :   0.9285 B( 12-C , 14-H ) :   0.9071
B( 12-C , 15-O ) :   0.8146 B( 12-C , 16-C ) :   0.9007 B( 16-C , 17-C ) :   0.9134
B( 16-C , 20-O ) :   0.8414 B( 16-C , 21-H ) :   0.9270 B( 17-C , 18-C ) :   0.9126
B( 17-C , 22-O ) :   0.8877 B( 17-C , 23-H ) :   0.9243 B( 18-C , 19-C ) :   0.9397
B( 18-C , 24-H ) :   0.9383 B( 18-C , 25-H ) :   0.9355 B( 19-C , 20-O ) :   0.8463
B( 19-C , 26-H ) :   0.9357 B( 19-C , 27-H ) :   0.9380 B( 22-O , 28-H ) :   0.7961

FINAL SINGLE POINT ENERGY      -652.869143565970

DIPOLE MOMENT
-------------
                                X             Y             Z
Electronic contribution:     -0.81187      -1.72693       1.35479
Nuclear contribution   :      1.03145       1.73605      -1.78255
                        -----------------------------------------
Total Dipole Moment    :      0.21959       0.00912      -0.42776
                        -----------------------------------------
Magnitude (a.u.)       :      0.48092
Magnitude (Debye)      :      1.22240

Rotational constants in cm-1:     0.054020     0.013464     0.012879
Rotational constants in MHz :  1619.489671   403.648289   386.117205

                             ****ORCA TERMINATED NORMALLY****
TOTAL RUN TIME: 0 days 0 hours 32 minutes 53 seconds 58 msec
