                         Program Version 4.2.0 -  RELEASE  -
|  1> # Test redundant internal optimization
|  2> #
|  3> ! RKS B3LYP  Opt TightSCF SmallPrint
|  4>
|  5> %basis
|  6>         Basis "6-31G"
|  7> end
|  8>
|  9> %geom
| 10> Constraints
| 11> { D 4  0  15  12  315.0   C } # D for Dihedral angle
| 12> { D 0  15  12  16  135.0   C } # D for Dihedral angle
| 13> { D 0  4  3  2   C } # D for Dihedral angle
| 14> { D 4  3  2  1   C } # D for Dihedral angle
| 15> { D 3  2  1  0   C } # D for Dihedral angle
| 16> { D 2  1  0  4   C } # D for Dihedral angle
| 17> { D 1  0  4  3   C } # D for Dihedral angle
| 18> { D 16  20  19  18   C } # D for Dihedral angle
| 19> { D 20  19  18  17   C } # D for Dihedral angle
| 20> { D 19  18  17  16   C } # D for Dihedral angle
| 21> { D 18  17  16  20   C } # D for Dihedral angle
| 22> { D 17  16  20  19   C } # D for Dihedral angle
| 23> { D 15  12  16  20   C } # D for Dihedral angle
| 24> end
| 25> end
| 26>
| 27>
| 28> #%pal
| 29> #nprocs 8
| 30> #end
| 31>
| 32> * xyz 0 1
| 33> C  -21.048   26.222   46.251
| 34> C  -20.361   27.558   45.944
| 35> C  -20.329   28.222   47.341
| 36> C  -20.110   27.022   48.296
| 37> O  -20.473   25.807   47.535
| 38> H  -20.833   25.428   45.533
| 39> H  -19.344   27.382   45.576
| 40> H  -20.898   28.157   45.201
| 41> H  -19.543   28.978   47.434
| 42> H  -21.289   28.710   47.548
| 43> H  -20.733   27.082   49.195
| 44> H  -19.064   26.913   48.597
| 45> C  -23.319   25.255   47.135
| 46> H  -23.841   24.615   46.412
| 47> H  -22.599   24.634   47.684
| 48> O  -22.586   26.394   46.375
| 49> C  -24.360   25.788   48.157
| 50> C  -24.979   24.644   48.969
| 51> C  -23.871   24.364   50.011
| 52> C  -23.286   25.771   50.290
| 53> O  -23.706   26.631   49.163
| 54> H  -25.085   26.416   47.635
| 55> O  -26.279   25.129   49.668
| 56> H  -25.221   23.767   48.360
| 57> H  -24.252   23.883   50.918
| 58> H  -23.106   23.706   49.580
| 59> H  -22.192   25.766   50.349
| 60> H  -23.688   26.217   51.204
| 61> H  -26.060   26.008   50.284
| 62> *
| 63>
| 64>                          ****END OF INPUT****
 Total Charge           Charge          ....    0
 Multiplicity           Mult            ....    1
 Number of Electrons    NEL             ....  102
FINAL SINGLE POINT ENERGY      -652.838687377274
FINAL SINGLE POINT ENERGY      -652.862334499288
FINAL SINGLE POINT ENERGY      -652.866784617238
FINAL SINGLE POINT ENERGY      -652.867688670391
FINAL SINGLE POINT ENERGY      -652.867808617123
FINAL SINGLE POINT ENERGY      -652.867824685094
                    ***********************HURRAY********************

CARTESIAN COORDINATES (ANGSTROEM)
---------------------------------
  C    -21.092343   26.181483   46.252821
  C    -20.567074   27.594919   46.006688
  C    -20.506495   28.159936   47.441844
  C    -20.105797   26.937521   48.292005
  O    -20.404211   25.743057   47.448121
  H    -20.857110   25.438195   45.484014
  H    -19.569950   27.536539   45.555152
  H    -21.225303   28.165146   45.347691
  H    -19.794964   28.985742   47.539291
  H    -21.498907   28.508460   47.738492
  H    -20.678223   26.866040   49.217249
  H    -19.034912   26.896000   48.512011
  C    -23.192037   25.191412   47.114016
  H    -23.745364   24.588002   46.380362
  H    -22.445229   24.562855   47.611138
  O    -22.524498   26.285984   46.428923
  C    -24.166262   25.782294   48.129227
  C    -24.927101   24.739448   48.962633
  C    -23.898818   24.417887   50.076131
  C    -23.202176   25.778116   50.319762
  O    -23.486715   26.617756   49.128237
  H    -24.857917   26.448884   47.604518
  O    -26.154275   25.299381   49.505283
  H    -25.238409   23.860832   48.395638
  H    -24.400494   24.029063   50.965525
  H    -23.184389   23.664096   49.726501
  H    -22.119354   25.677685   50.436682
  H    -23.603378   26.307435   51.189594
  H    -25.973294   26.204832   49.835452

 Multiplicity           Mult            ....    1
 Number of Electrons    NEL             ....  102
 Basis Dimension        Dim             ....  149

ORBITAL ENERGIES
----------------

  NO   OCC          E(Eh)            E(eV)
   0   2.0000     -19.144387      -520.9453
   1   2.0000     -19.141653      -520.8709
   2   2.0000     -19.138661      -520.7895
   3   2.0000     -19.137923      -520.7694
   4   2.0000     -10.275159      -279.6013
   5   2.0000     -10.242927      -278.7242
   6   2.0000     -10.232347      -278.4363
   7   2.0000     -10.231517      -278.4137
   8   2.0000     -10.226157      -278.2679
   9   2.0000     -10.220959      -278.1264
  10   2.0000     -10.189718      -277.2763
  11   2.0000     -10.179975      -277.0112
  12   2.0000     -10.176985      -276.9298
  13   2.0000      -1.051941       -28.6248
  14   2.0000      -1.035524       -28.1780
  15   2.0000      -1.006291       -27.3826
  16   2.0000      -0.988862       -26.9083
  17   2.0000      -0.788827       -21.4651
  18   2.0000      -0.780016       -21.2253
  19   2.0000      -0.765357       -20.8264
  20   2.0000      -0.728494       -19.8233
  21   2.0000      -0.670840       -18.2545
  22   2.0000      -0.604981       -16.4624
  23   2.0000      -0.595999       -16.2179
  24   2.0000      -0.588353       -16.0099
  25   2.0000      -0.577833       -15.7236
  26   2.0000      -0.524747       -14.2791
  27   2.0000      -0.511406       -13.9161
  28   2.0000      -0.489589       -13.3224
  29   2.0000      -0.484188       -13.1754
  30   2.0000      -0.479306       -13.0426
  31   2.0000      -0.457109       -12.4386
  32   2.0000      -0.449418       -12.2293
  33   2.0000      -0.440378       -11.9833
  34   2.0000      -0.418902       -11.3989
  35   2.0000      -0.402336       -10.9481
  36   2.0000      -0.397910       -10.8277
  37   2.0000      -0.393748       -10.7144
  38   2.0000      -0.372439       -10.1346
  39   2.0000      -0.372158       -10.1269
  40   2.0000      -0.357890        -9.7387
  41   2.0000      -0.350533        -9.5385
  42   2.0000      -0.342795        -9.3279
  43   2.0000      -0.331470        -9.0198
  44   2.0000      -0.328544        -8.9401
  45   2.0000      -0.308466        -8.3938
  46   2.0000      -0.292980        -7.9724
  47   2.0000      -0.271792        -7.3958
  48   2.0000      -0.263592        -7.1727
  49   2.0000      -0.255379        -6.9492
  50   2.0000      -0.243342        -6.6217
  51   0.0000       0.063548         1.7292
  52   0.0000       0.090075         2.4511
  53   0.0000       0.092104         2.5063
  54   0.0000       0.100446         2.7333
  55   0.0000       0.105488         2.8705

MULLIKEN ATOMIC CHARGES
-----------------------
   0 C :    0.294267
   1 C :   -0.262400
   2 C :   -0.299882
   3 C :   -0.014030
   4 O :   -0.518655
   5 H :    0.142311
   6 H :    0.140907
   7 H :    0.159364
   8 H :    0.136132
   9 H :    0.180596
  10 H :    0.155949
  11 H :    0.139603
  12 C :   -0.013159
  13 H :    0.130710
  14 H :    0.160152
  15 O :   -0.522860
  16 C :    0.073048
  17 C :    0.076315
  18 C :   -0.300127
  19 C :   -0.033349
  20 O :   -0.517824
  21 H :    0.168026
  22 O :   -0.601976
  23 H :    0.152438
  24 H :    0.162883
  25 H :    0.150389
  26 H :    0.151372
  27 H :    0.144575
  28 H :    0.365226
Sum of atomic charges:   -0.0000000

LOEWDIN ATOMIC CHARGES
----------------------
   0 C :    0.177252
   1 C :   -0.214493
   2 C :   -0.216476
   3 C :   -0.028729
   4 O :   -0.330879
   5 H :    0.094667
   6 H :    0.111757
   7 H :    0.125578
   8 H :    0.111591
   9 H :    0.128522
  10 H :    0.107906
  11 H :    0.100849
  12 C :   -0.047541
  13 H :    0.098996
  14 H :    0.111656
  15 O :   -0.326769
  16 C :    0.016022
  17 C :    0.035254
  18 C :   -0.240785
  19 C :   -0.039895
  20 O :   -0.327270
  21 H :    0.119187
  22 O :   -0.414304
  23 H :    0.115952
  24 H :    0.126852
  25 H :    0.115975
  26 H :    0.104108
  27 H :    0.101612
  28 H :    0.283405

  Mayer bond orders larger than 0.100000
B(  0-C ,  1-C ) :   0.9500 B(  0-C ,  4-O ) :   0.9017 B(  0-C ,  5-H ) :   0.9222
B(  0-C , 15-O ) :   0.8562 B(  1-C ,  2-C ) :   0.9559 B(  1-C ,  6-H ) :   0.9395
B(  1-C ,  7-H ) :   0.9357 B(  2-C ,  3-C ) :   0.9596 B(  2-C ,  8-H ) :   0.9446
B(  2-C ,  9-H ) :   0.9360 B(  3-C ,  4-O ) :   0.8303 B(  3-C , 10-H ) :   0.9234
B(  3-C , 11-H ) :   0.9402 B( 12-C , 13-H ) :   0.9188 B( 12-C , 14-H ) :   0.9089
B( 12-C , 15-O ) :   0.8383 B( 12-C , 16-C ) :   0.8988 B( 16-C , 17-C ) :   0.8986
B( 16-C , 20-O ) :   0.8576 B( 16-C , 21-H ) :   0.9247 B( 17-C , 18-C ) :   0.9123
B( 17-C , 22-O ) :   0.8926 B( 17-C , 23-H ) :   0.9332 B( 18-C , 19-C ) :   0.9421
B( 18-C , 24-H ) :   0.9374 B( 18-C , 25-H ) :   0.9330 B( 19-C , 20-O ) :   0.8505
B( 19-C , 26-H ) :   0.9254 B( 19-C , 27-H ) :   0.9385 B( 22-O , 28-H ) :   0.7944

FINAL SINGLE POINT ENERGY      -652.867826383265

DIPOLE MOMENT
-------------
                                X             Y             Z
Electronic contribution:     -3.30039      -0.83511      -1.54671
Nuclear contribution   :      3.96417       0.80699       1.81609
                        -----------------------------------------
Total Dipole Moment    :      0.66378      -0.02813       0.26939
                        -----------------------------------------
Magnitude (a.u.)       :      0.71691
Magnitude (Debye)      :      1.82225

Rotational constants in cm-1:     0.055758     0.015494     0.014299
Rotational constants in MHz :  1671.579249   464.496408   428.679637

                             ****ORCA TERMINATED NORMALLY****
TOTAL RUN TIME: 0 days 0 hours 19 minutes 0 seconds 302 msec
