                         Program Version 4.2.0 -  RELEASE  -
|  1> # Test redundant internal optimization
|  2> #
|  3> ! RKS B3LYP  Opt TightSCF SmallPrint
|  4>
|  5> %basis
|  6>         Basis "6-31G"
|  7> end
|  8>
|  9> %geom
| 10> Constraints
| 11> { D 4  0  15  12  270.0   C } # D for Dihedral angle
| 12> { D 0  15  12  16  105.0   C } # D for Dihedral angle
| 13> { D 0  4  3  2   C } # D for Dihedral angle
| 14> { D 4  3  2  1   C } # D for Dihedral angle
| 15> { D 3  2  1  0   C } # D for Dihedral angle
| 16> { D 2  1  0  4   C } # D for Dihedral angle
| 17> { D 1  0  4  3   C } # D for Dihedral angle
| 18> { D 16  20  19  18   C } # D for Dihedral angle
| 19> { D 20  19  18  17   C } # D for Dihedral angle
| 20> { D 19  18  17  16   C } # D for Dihedral angle
| 21> { D 18  17  16  20   C } # D for Dihedral angle
| 22> { D 17  16  20  19   C } # D for Dihedral angle
| 23> { D 15  12  16  20   C } # D for Dihedral angle
| 24> end
| 25> end
| 26>
| 27>
| 28> #%pal
| 29> #nprocs 8
| 30> #end
| 31>
| 32> * xyz 0 1
| 33> C  -21.048   26.222   46.251
| 34> C  -20.361   27.558   45.944
| 35> C  -20.329   28.222   47.341
| 36> C  -20.110   27.022   48.296
| 37> O  -20.473   25.807   47.535
| 38> H  -20.833   25.428   45.533
| 39> H  -19.344   27.382   45.576
| 40> H  -20.898   28.157   45.201
| 41> H  -19.543   28.978   47.434
| 42> H  -21.289   28.710   47.548
| 43> H  -20.733   27.082   49.195
| 44> H  -19.064   26.913   48.597
| 45> C  -23.420   25.119   46.072
| 46> H  -24.261   25.383   45.420
| 47> H  -22.805   24.372   45.553
| 48> O  -22.586   26.394   46.375
| 49> C  -23.987   24.453   47.357
| 50> C  -24.995   25.370   48.059
| 51> C  -26.265   25.155   47.201
| 52> C  -26.170   23.661   46.800
| 53> O  -24.764   23.257   47.014
| 54> H  -23.158   24.126   47.986
| 55> O  -25.230   24.885   49.516
| 56> H  -24.676   26.417   48.092
| 57> H  -27.188   25.384   47.744
| 58> H  -26.231   25.797   46.313
| 59> H  -26.437   23.491   45.752
| 60> H  -26.790   23.020   47.432
| 61> H  -25.551   23.837   49.509
| 62> *
| 63>
| 64>                          ****END OF INPUT****
 Total Charge           Charge          ....    0
 Multiplicity           Mult            ....    1
 Number of Electrons    NEL             ....  102
FINAL SINGLE POINT ENERGY      -652.841178111303
FINAL SINGLE POINT ENERGY      -652.864297850297
FINAL SINGLE POINT ENERGY      -652.867939831032
FINAL SINGLE POINT ENERGY      -652.868604145057
FINAL SINGLE POINT ENERGY      -652.868708353604
FINAL SINGLE POINT ENERGY      -652.868723428009
FINAL SINGLE POINT ENERGY      -652.868726702460
                    ***********************HURRAY********************

CARTESIAN COORDINATES (ANGSTROEM)
---------------------------------
  C    -21.091030   26.117426   46.239748
  C    -20.491786   27.501684   45.987744
  C    -20.556524   28.137093   47.396857
  C    -20.287815   26.936845   48.332808
  O    -20.542130   25.721234   47.517833
  H    -20.815180   25.336474   45.524584
  H    -19.453374   27.390351   45.655142
  H    -21.050454   28.059793   45.234061
  H    -19.826152   28.940534   47.531416
  H    -21.556805   28.544907   47.569809
  H    -20.944252   26.917693   49.206109
  H    -19.245977   26.879678   48.661805
  C    -23.327615   25.082512   45.990936
  H    -24.120100   25.402609   45.306009
  H    -22.724044   24.315025   45.490046
  O    -22.526426   26.262656   46.293359
  C    -23.909485   24.505650   47.283378
  C    -24.872904   25.441331   48.027315
  C    -26.185929   25.238375   47.228532
  C    -26.131197   23.741747   46.831264
  O    -24.716805   23.317276   46.982782
  H    -23.089980   24.188913   47.934575
  O    -25.019587   25.042251   49.418220
  H    -24.528088   26.473891   48.049607
  H    -27.053833   25.483041   47.846368
  H    -26.200985   25.886371   46.345519
  H    -26.447942   23.562385   45.799057
  H    -26.729626   23.108646   47.493581
  H    -25.092976   24.065609   49.467532

 Multiplicity           Mult            ....    1
 Number of Electrons    NEL             ....  102
 Basis Dimension        Dim             ....  149

ORBITAL ENERGIES
----------------

  NO   OCC          E(Eh)            E(eV)
   0   2.0000     -19.147799      -521.0381
   1   2.0000     -19.142022      -520.8809
   2   2.0000     -19.139045      -520.7999
   3   2.0000     -19.132167      -520.6127
   4   2.0000     -10.280909      -279.7578
   5   2.0000     -10.233017      -278.4545
   6   2.0000     -10.231852      -278.4229
   7   2.0000     -10.229467      -278.3579
   8   2.0000     -10.227268      -278.2981
   9   2.0000     -10.223479      -278.1950
  10   2.0000     -10.185420      -277.1594
  11   2.0000     -10.185379      -277.1583
  12   2.0000     -10.184711      -277.1401
  13   2.0000      -1.054801       -28.7026
  14   2.0000      -1.032554       -28.0972
  15   2.0000      -1.001511       -27.2525
  16   2.0000      -0.995942       -27.1010
  17   2.0000      -0.789280       -21.4774
  18   2.0000      -0.776019       -21.1166
  19   2.0000      -0.764181       -20.7944
  20   2.0000      -0.729108       -19.8400
  21   2.0000      -0.673419       -18.3247
  22   2.0000      -0.601301       -16.3622
  23   2.0000      -0.597953       -16.2711
  24   2.0000      -0.594136       -16.1673
  25   2.0000      -0.580221       -15.7886
  26   2.0000      -0.519796       -14.1444
  27   2.0000      -0.517835       -14.0910
  28   2.0000      -0.494294       -13.4504
  29   2.0000      -0.486779       -13.2459
  30   2.0000      -0.467391       -12.7184
  31   2.0000      -0.457627       -12.4527
  32   2.0000      -0.447428       -12.1751
  33   2.0000      -0.439326       -11.9547
  34   2.0000      -0.422901       -11.5077
  35   2.0000      -0.412075       -11.2131
  36   2.0000      -0.399289       -10.8652
  37   2.0000      -0.390086       -10.6148
  38   2.0000      -0.372678       -10.1411
  39   2.0000      -0.364554        -9.9200
  40   2.0000      -0.356741        -9.7074
  41   2.0000      -0.353422        -9.6171
  42   2.0000      -0.347677        -9.4608
  43   2.0000      -0.328833        -8.9480
  44   2.0000      -0.325649        -8.8614
  45   2.0000      -0.307625        -8.3709
  46   2.0000      -0.300019        -8.1639
  47   2.0000      -0.281081        -7.6486
  48   2.0000      -0.264032        -7.1847
  49   2.0000      -0.253247        -6.8912
  50   2.0000      -0.238508        -6.4901
  51   0.0000       0.065848         1.7918
  52   0.0000       0.078439         2.1344
  53   0.0000       0.097245         2.6462
  54   0.0000       0.100799         2.7429
  55   0.0000       0.106374         2.8946

MULLIKEN ATOMIC CHARGES
-----------------------
   0 C :    0.281478
   1 C :   -0.256333
   2 C :   -0.299712
   3 C :   -0.005181
   4 O :   -0.507450
   5 H :    0.143897
   6 H :    0.145370
   7 H :    0.152940
   8 H :    0.141458
   9 H :    0.162450
  10 H :    0.155731
  11 H :    0.142160
  12 C :   -0.026429
  13 H :    0.142830
  14 H :    0.147658
  15 O :   -0.518847
  16 C :    0.059528
  17 C :    0.094894
  18 C :   -0.301810
  19 C :   -0.028694
  20 O :   -0.527830
  21 H :    0.178432
  22 O :   -0.604750
  23 H :    0.169557
  24 H :    0.159880
  25 H :    0.146431
  26 H :    0.141718
  27 H :    0.148198
  28 H :    0.362428
Sum of atomic charges:   -0.0000000

LOEWDIN ATOMIC CHARGES
----------------------
   0 C :    0.172182
   1 C :   -0.216425
   2 C :   -0.215863
   3 C :   -0.028101
   4 O :   -0.328057
   5 H :    0.098447
   6 H :    0.114137
   7 H :    0.122152
   8 H :    0.113714
   9 H :    0.118925
  10 H :    0.109542
  11 H :    0.102672
  12 C :   -0.039092
  13 H :    0.103983
  14 H :    0.107664
  15 O :   -0.327601
  16 C :    0.007438
  17 C :    0.038465
  18 C :   -0.242783
  19 C :   -0.038344
  20 O :   -0.332843
  21 H :    0.124091
  22 O :   -0.415307
  23 H :    0.124345
  24 H :    0.125825
  25 H :    0.114009
  26 H :    0.102088
  27 H :    0.103121
  28 H :    0.281615

  Mayer bond orders larger than 0.100000
B(  0-C ,  1-C ) :   0.9484 B(  0-C ,  4-O ) :   0.9180 B(  0-C ,  5-H ) :   0.9179
B(  0-C , 15-O ) :   0.8540 B(  1-C ,  2-C ) :   0.9575 B(  1-C ,  6-H ) :   0.9394
B(  1-C ,  7-H ) :   0.9372 B(  2-C ,  3-C ) :   0.9544 B(  2-C ,  8-H ) :   0.9453
B(  2-C ,  9-H ) :   0.9442 B(  3-C ,  4-O ) :   0.8348 B(  3-C , 10-H ) :   0.9342
B(  3-C , 11-H ) :   0.9402 B( 12-C , 13-H ) :   0.9369 B( 12-C , 14-H ) :   0.9191
B( 12-C , 15-O ) :   0.8350 B( 12-C , 16-C ) :   0.8881 B( 16-C , 17-C ) :   0.9145
B( 16-C , 20-O ) :   0.8373 B( 16-C , 21-H ) :   0.9200 B( 17-C , 18-C ) :   0.9118
B( 17-C , 22-O ) :   0.8913 B( 17-C , 23-H ) :   0.9255 B( 18-C , 19-C ) :   0.9424
B( 18-C , 24-H ) :   0.9383 B( 18-C , 25-H ) :   0.9344 B( 19-C , 20-O ) :   0.8446
B( 19-C , 26-H ) :   0.9364 B( 19-C , 27-H ) :   0.9377 B( 22-O , 28-H ) :   0.7961

FINAL SINGLE POINT ENERGY      -652.868727048329

DIPOLE MOMENT
-------------
                                X             Y             Z
Electronic contribution:     -0.18372      -4.03817       1.33690
Nuclear contribution   :      0.12469       4.63916      -2.15109
                        -----------------------------------------
Total Dipole Moment    :     -0.05902       0.60099      -0.81419
                        -----------------------------------------
Magnitude (a.u.)       :      1.01370
Magnitude (Debye)      :      2.57662

Rotational constants in cm-1:     0.054872     0.013492     0.012592
Rotational constants in MHz :  1645.024614   404.490538   377.506457

                             ****ORCA TERMINATED NORMALLY****
TOTAL RUN TIME: 0 days 0 hours 23 minutes 28 seconds 950 msec
