                         Program Version 4.2.0 -  RELEASE  -
|  1> # Test redundant internal optimization
|  2> #
|  3> ! RKS B3LYP  Opt TightSCF SmallPrint
|  4>
|  5> %basis
|  6>         Basis "6-31G"
|  7> end
|  8>
|  9> %geom
| 10> Constraints
| 11> { D 4  0  15  12  30.0   C } # D for Dihedral angle
| 12> { D 0  15  12  16  240.0   C } # D for Dihedral angle
| 13> { D 0  4  3  2   C } # D for Dihedral angle
| 14> { D 4  3  2  1   C } # D for Dihedral angle
| 15> { D 3  2  1  0   C } # D for Dihedral angle
| 16> { D 2  1  0  4   C } # D for Dihedral angle
| 17> { D 1  0  4  3   C } # D for Dihedral angle
| 18> { D 16  20  19  18   C } # D for Dihedral angle
| 19> { D 20  19  18  17   C } # D for Dihedral angle
| 20> { D 19  18  17  16   C } # D for Dihedral angle
| 21> { D 18  17  16  20   C } # D for Dihedral angle
| 22> { D 17  16  20  19   C } # D for Dihedral angle
| 23> { D 15  12  16  20   C } # D for Dihedral angle
| 24> end
| 25> end
| 26>
| 27>
| 28> #%pal
| 29> #nprocs 8
| 30> #end
| 31>
| 32> * xyz 0 1
| 33> C  -21.048   26.222   46.251
| 34> C  -20.361   27.558   45.944
| 35> C  -20.329   28.222   47.341
| 36> C  -20.110   27.022   48.296
| 37> O  -20.473   25.807   47.535
| 38> H  -20.833   25.428   45.533
| 39> H  -19.344   27.382   45.576
| 40> H  -20.898   28.157   45.201
| 41> H  -19.543   28.978   47.434
| 42> H  -21.289   28.710   47.548
| 43> H  -20.733   27.082   49.195
| 44> H  -19.064   26.913   48.597
| 45> C  -23.091   26.824   47.779
| 46> H  -22.233   26.941   48.453
| 47> H  -23.615   27.787   47.721
| 48> O  -22.586   26.394   46.375
| 49> C  -24.069   25.792   48.408
| 50> C  -25.254   25.509   47.477
| 51> C  -24.626   24.526   46.461
| 52> C  -23.637   23.707   47.328
| 53> O  -23.411   24.491   48.562
| 54> H  -24.350   26.129   49.407
| 55> O  -26.399   24.821   48.268
| 56> H  -25.654   26.411   47.003
| 57> H  -25.370   23.893   45.966
| 58> H  -24.088   25.081   45.683
| 59> H  -22.678   23.540   46.827
| 60> H  -24.050   22.740   47.632
| 61> H  -26.021   23.914   48.752
| 62> *
| 63>
| 64>                          ****END OF INPUT****
 Total Charge           Charge          ....    0
 Multiplicity           Mult            ....    1
 Number of Electrons    NEL             ....  102
FINAL SINGLE POINT ENERGY      -652.823742944348
FINAL SINGLE POINT ENERGY      -652.848121833926
FINAL SINGLE POINT ENERGY      -652.855595744773
FINAL SINGLE POINT ENERGY      -652.857804485063
FINAL SINGLE POINT ENERGY      -652.858090213054
FINAL SINGLE POINT ENERGY      -652.858138646744
FINAL SINGLE POINT ENERGY      -652.858141835305
                    ***********************HURRAY********************

CARTESIAN COORDINATES (ANGSTROEM)
---------------------------------
  C    -21.108618   26.321905   46.400675
  C    -20.405758   27.618769   45.988053
  C    -20.148026   28.296851   47.360366
  C    -19.860253   27.092798   48.288121
  O    -20.395260   25.898945   47.578115
  H    -21.006509   25.518939   45.668915
  H    -19.459611   27.370504   45.493772
  H    -21.014160   28.222156   45.310791
  H    -19.311813   29.001943   47.330805
  H    -21.036698   28.847846   47.687577
  H    -20.338766   27.167155   49.268675
  H    -18.789682   26.916703   48.428007
  C    -23.167936   26.823013   47.812088
  H    -22.406182   26.953517   48.583720
  H    -23.707024   27.769843   47.674234
  O    -22.550143   26.460074   46.545254
  C    -24.137449   25.746268   48.310293
  C    -25.318727   25.410944   47.388470
  C    -24.680826   24.384722   46.414942
  C    -23.689598   23.615884   47.323480
  O    -23.475436   24.462249   48.521006
  H    -24.512340   26.075298   49.287308
  O    -26.418616   24.838380   48.152756
  H    -25.743228   26.279272   46.883646
  H    -25.447226   23.740246   45.975071
  H    -24.147262   24.917077   45.626511
  H    -22.724138   23.440817   46.842344
  H    -24.089374   22.658784   47.675311
  H    -26.066342   24.130095   48.732694

 Multiplicity           Mult            ....    1
 Number of Electrons    NEL             ....  102
 Basis Dimension        Dim             ....  149

ORBITAL ENERGIES
----------------

  NO   OCC          E(Eh)            E(eV)
   0   2.0000     -19.150502      -521.1116
   1   2.0000     -19.143664      -520.9256
   2   2.0000     -19.131975      -520.6075
   3   2.0000     -19.130155      -520.5580
   4   2.0000     -10.282929      -279.8127
   5   2.0000     -10.234734      -278.5013
   6   2.0000     -10.232262      -278.4340
   7   2.0000     -10.230992      -278.3995
   8   2.0000     -10.227751      -278.3112
   9   2.0000     -10.217645      -278.0363
  10   2.0000     -10.196122      -277.4506
  11   2.0000     -10.189726      -277.2765
  12   2.0000     -10.171265      -276.7742
  13   2.0000      -1.056490       -28.7485
  14   2.0000      -1.027852       -27.9693
  15   2.0000      -1.000658       -27.2293
  16   2.0000      -0.992480       -27.0067
  17   2.0000      -0.792702       -21.5705
  18   2.0000      -0.776263       -21.1232
  19   2.0000      -0.761100       -20.7106
  20   2.0000      -0.734562       -19.9885
  21   2.0000      -0.673322       -18.3220
  22   2.0000      -0.607443       -16.5294
  23   2.0000      -0.602969       -16.4076
  24   2.0000      -0.591863       -16.1054
  25   2.0000      -0.566132       -15.4052
  26   2.0000      -0.525192       -14.2912
  27   2.0000      -0.508823       -13.8458
  28   2.0000      -0.495138       -13.4734
  29   2.0000      -0.483019       -13.1436
  30   2.0000      -0.476505       -12.9664
  31   2.0000      -0.459720       -12.5096
  32   2.0000      -0.446637       -12.1536
  33   2.0000      -0.434915       -11.8346
  34   2.0000      -0.421852       -11.4792
  35   2.0000      -0.412304       -11.2194
  36   2.0000      -0.396510       -10.7896
  37   2.0000      -0.382656       -10.4126
  38   2.0000      -0.380416       -10.3516
  39   2.0000      -0.366062        -9.9611
  40   2.0000      -0.363615        -9.8945
  41   2.0000      -0.357531        -9.7289
  42   2.0000      -0.348371        -9.4797
  43   2.0000      -0.327383        -8.9085
  44   2.0000      -0.322370        -8.7721
  45   2.0000      -0.310297        -8.4436
  46   2.0000      -0.294821        -8.0225
  47   2.0000      -0.266875        -7.2620
  48   2.0000      -0.263398        -7.1674
  49   2.0000      -0.256230        -6.9724
  50   2.0000      -0.233075        -6.3423
  51   0.0000       0.068535         1.8649
  52   0.0000       0.078051         2.1239
  53   0.0000       0.093865         2.5542
  54   0.0000       0.102132         2.7792
  55   0.0000       0.108346         2.9482

MULLIKEN ATOMIC CHARGES
-----------------------
   0 C :    0.305292
   1 C :   -0.260968
   2 C :   -0.313311
   3 C :   -0.022044
   4 O :   -0.499058
   5 H :    0.159329
   6 H :    0.148711
   7 H :    0.155306
   8 H :    0.150166
   9 H :    0.149742
  10 H :    0.150575
  11 H :    0.152543
  12 C :   -0.010586
  13 H :    0.155475
  14 H :    0.132813
  15 O :   -0.539687
  16 C :    0.082542
  17 C :    0.076527
  18 C :   -0.282638
  19 C :   -0.019898
  20 O :   -0.521686
  21 H :    0.146622
  22 O :   -0.605852
  23 H :    0.147204
  24 H :    0.145281
  25 H :    0.171093
  26 H :    0.151545
  27 H :    0.133304
  28 H :    0.361661
Sum of atomic charges:   -0.0000000

LOEWDIN ATOMIC CHARGES
----------------------
   0 C :    0.181276
   1 C :   -0.225397
   2 C :   -0.223015
   3 C :   -0.035018
   4 O :   -0.309757
   5 H :    0.108521
   6 H :    0.116511
   7 H :    0.122451
   8 H :    0.118649
   9 H :    0.111018
  10 H :    0.103435
  11 H :    0.107607
  12 C :   -0.039392
  13 H :    0.111974
  14 H :    0.100399
  15 O :   -0.336741
  16 C :    0.011775
  17 C :    0.038308
  18 C :   -0.241011
  19 C :   -0.032629
  20 O :   -0.325486
  21 H :    0.112215
  22 O :   -0.419277
  23 H :    0.113989
  24 H :    0.117007
  25 H :    0.128901
  26 H :    0.107492
  27 H :    0.095047
  28 H :    0.281150

  Mayer bond orders larger than 0.100000
B(  0-C ,  1-C ) :   0.9204 B(  0-C ,  4-O ) :   0.9200 B(  0-C ,  5-H ) :   0.9344
B(  0-C , 15-O ) :   0.8543 B(  1-C ,  2-C ) :   0.9543 B(  1-C ,  6-H ) :   0.9348
B(  1-C ,  7-H ) :   0.9371 B(  2-C ,  3-C ) :   0.9494 B(  2-C ,  8-H ) :   0.9447
B(  2-C ,  9-H ) :   0.9445 B(  3-C ,  4-O ) :   0.8345 B(  3-C , 10-H ) :   0.9282
B(  3-C , 11-H ) :   0.9389 B( 12-C , 13-H ) :   0.9108 B( 12-C , 14-H ) :   0.9216
B( 12-C , 15-O ) :   0.8479 B( 12-C , 16-C ) :   0.8877 B( 16-C , 17-C ) :   0.9123
B( 16-C , 20-O ) :   0.8782 B( 16-C , 21-H ) :   0.9198 B( 17-C , 18-C ) :   0.9240
B( 17-C , 22-O ) :   0.8887 B( 17-C , 23-H ) :   0.9363 B( 18-C , 19-C ) :   0.9449
B( 18-C , 24-H ) :   0.9377 B( 18-C , 25-H ) :   0.9201 B( 19-C , 20-O ) :   0.8386
B( 19-C , 26-H ) :   0.9338 B( 19-C , 27-H ) :   0.9376 B( 22-O , 28-H ) :   0.7965

FINAL SINGLE POINT ENERGY      -652.858140418391

DIPOLE MOMENT
-------------
                                X             Y             Z
Electronic contribution:     -2.84354      -3.35297       1.57486
Nuclear contribution   :      3.78293       4.28354      -1.90807
                        -----------------------------------------
Total Dipole Moment    :      0.93940       0.93058      -0.33320
                        -----------------------------------------
Magnitude (a.u.)       :      1.36362
Magnitude (Debye)      :      3.46605

Rotational constants in cm-1:     0.061795     0.014280     0.014120
Rotational constants in MHz :  1852.564360   428.107124   423.321617

                             ****ORCA TERMINATED NORMALLY****
TOTAL RUN TIME: 0 days 0 hours 20 minutes 55 seconds 286 msec
