                         Program Version 4.2.0 -  RELEASE  -
|  1> # Test redundant internal optimization
|  2> #
|  3> ! RKS B3LYP  Opt TightSCF SmallPrint
|  4>
|  5> %basis
|  6>         Basis "6-31G"
|  7> end
|  8>
|  9> %geom
| 10> Constraints
| 11> { D 4  0  15  12  330.0   C } # D for Dihedral angle
| 12> { D 0  15  12  16  105.0   C } # D for Dihedral angle
| 13> { D 0  4  3  2   C } # D for Dihedral angle
| 14> { D 4  3  2  1   C } # D for Dihedral angle
| 15> { D 3  2  1  0   C } # D for Dihedral angle
| 16> { D 2  1  0  4   C } # D for Dihedral angle
| 17> { D 1  0  4  3   C } # D for Dihedral angle
| 18> { D 16  20  19  18   C } # D for Dihedral angle
| 19> { D 20  19  18  17   C } # D for Dihedral angle
| 20> { D 19  18  17  16   C } # D for Dihedral angle
| 21> { D 18  17  16  20   C } # D for Dihedral angle
| 22> { D 17  16  20  19   C } # D for Dihedral angle
| 23> { D 15  12  16  20   C } # D for Dihedral angle
| 24> end
| 25> end
| 26>
| 27>
| 28> #%pal
| 29> #nprocs 8
| 30> #end
| 31>
| 32> * xyz 0 1
| 33> C  -21.048   26.222   46.251
| 34> C  -20.361   27.558   45.944
| 35> C  -20.329   28.222   47.341
| 36> C  -20.110   27.022   48.296
| 37> O  -20.473   25.807   47.535
| 38> H  -20.833   25.428   45.533
| 39> H  -19.344   27.382   45.576
| 40> H  -20.898   28.157   45.201
| 41> H  -19.543   28.978   47.434
| 42> H  -21.289   28.710   47.548
| 43> H  -20.733   27.082   49.195
| 44> H  -19.064   26.913   48.597
| 45> C  -23.271   25.476   47.424
| 46> H  -24.174   25.035   46.984
| 47> H  -22.598   24.659   47.717
| 48> O  -22.586   26.394   46.375
| 49> C  -23.678   26.238   48.715
| 50> C  -24.244   25.282   49.771
| 51> C  -22.953   24.664   50.359
| 52> C  -21.946   25.841   50.311
| 53> O  -22.498   26.827   49.357
| 54> H  -24.343   27.063   48.449
| 55> H  -24.786   25.846   50.538
| 56> O  -25.205   24.216   49.177
| 57> H  -23.091   24.275   51.372
| 58> H  -22.609   23.837   49.726
| 59> H  -20.952   25.530   49.970
| 60> H  -21.848   26.347   51.276
| 61> H  -24.684   23.638   48.407
| 62> *
| 63>
| 64>                          ****END OF INPUT****
 Total Charge           Charge          ....    0
 Multiplicity           Mult            ....    1
 Number of Electrons    NEL             ....  102
FINAL SINGLE POINT ENERGY      -652.816082755332
FINAL SINGLE POINT ENERGY      -652.836916718924
FINAL SINGLE POINT ENERGY      -652.855065282399
FINAL SINGLE POINT ENERGY      -652.858625622250
FINAL SINGLE POINT ENERGY      -652.859167056199
FINAL SINGLE POINT ENERGY      -652.859261205082
FINAL SINGLE POINT ENERGY      -652.859274229397
FINAL SINGLE POINT ENERGY      -652.859267154942
                    ***********************HURRAY********************

CARTESIAN COORDINATES (ANGSTROEM)
---------------------------------
  C    -21.038003   26.256490   46.281348
  C    -20.491301   27.631536   45.901390
  C    -20.259726   28.269383   47.288127
  C    -19.815847   27.081887   48.163480
  O    -20.247657   25.853845   47.418910
  H    -20.849136   25.479915   45.530068
  H    -19.548303   27.499469   45.358748
  H    -21.189516   28.193573   45.277210
  H    -19.514275   29.070852   47.264164
  H    -21.200577   28.677114   47.668266
  H    -20.287277   27.090267   49.140775
  H    -18.728014   27.003056   48.257874
  C    -23.160768   25.471234   47.405185
  H    -24.062136   25.118722   46.892319
  H    -22.522917   24.606350   47.636837
  O    -22.476061   26.333739   46.461106
  C    -23.602140   26.173187   48.692118
  C    -24.313850   25.234333   49.681038
  C    -23.110333   24.612997   50.451747
  C    -22.104974   25.779164   50.518378
  O    -22.520347   26.760678   49.475323
  H    -24.237487   27.018539   48.408379
  H    -24.937031   25.823433   50.357178
  O    -25.224758   24.276406   49.090442
  H    -23.399110   24.241040   51.437770
  H    -22.703231   23.771704   49.875811
  H    -21.078879   25.459986   50.316623
  H    -22.138324   26.304780   51.477099
  H    -24.729024   23.555321   48.651287

 Multiplicity           Mult            ....    1
 Number of Electrons    NEL             ....  102
 Basis Dimension        Dim             ....  149

ORBITAL ENERGIES
----------------

  NO   OCC          E(Eh)            E(eV)
   0   2.0000     -19.150755      -521.1185
   1   2.0000     -19.143534      -520.9220
   2   2.0000     -19.140469      -520.8386
   3   2.0000     -19.134826      -520.6851
   4   2.0000     -10.271828      -279.5107
   5   2.0000     -10.246284      -278.8156
   6   2.0000     -10.232382      -278.4373
   7   2.0000     -10.229503      -278.3589
   8   2.0000     -10.227472      -278.3037
   9   2.0000     -10.213690      -277.9286
  10   2.0000     -10.196102      -277.4500
  11   2.0000     -10.176986      -276.9299
  12   2.0000     -10.174444      -276.8607
  13   2.0000      -1.045083       -28.4382
  14   2.0000      -1.034184       -28.1416
  15   2.0000      -1.017512       -27.6879
  16   2.0000      -0.987732       -26.8775
  17   2.0000      -0.786098       -21.3908
  18   2.0000      -0.780249       -21.2316
  19   2.0000      -0.764441       -20.8015
  20   2.0000      -0.728331       -19.8189
  21   2.0000      -0.676838       -18.4177
  22   2.0000      -0.613463       -16.6932
  23   2.0000      -0.593394       -16.1471
  24   2.0000      -0.586967       -15.9722
  25   2.0000      -0.569368       -15.4933
  26   2.0000      -0.526048       -14.3145
  27   2.0000      -0.513528       -13.9738
  28   2.0000      -0.491480       -13.3739
  29   2.0000      -0.482084       -13.1182
  30   2.0000      -0.469152       -12.7663
  31   2.0000      -0.458364       -12.4727
  32   2.0000      -0.443130       -12.0582
  33   2.0000      -0.432599       -11.7716
  34   2.0000      -0.421939       -11.4815
  35   2.0000      -0.416155       -11.3241
  36   2.0000      -0.401739       -10.9319
  37   2.0000      -0.392258       -10.6739
  38   2.0000      -0.380570       -10.3558
  39   2.0000      -0.366858        -9.9827
  40   2.0000      -0.351582        -9.5670
  41   2.0000      -0.346108        -9.4181
  42   2.0000      -0.339184        -9.2297
  43   2.0000      -0.333534        -9.0759
  44   2.0000      -0.322749        -8.7824
  45   2.0000      -0.317199        -8.6314
  46   2.0000      -0.293858        -7.9963
  47   2.0000      -0.272851        -7.4246
  48   2.0000      -0.263962        -7.1828
  49   2.0000      -0.254481        -6.9248
  50   2.0000      -0.234522        -6.3817
  51   0.0000       0.050755         1.3811
  52   0.0000       0.075519         2.0550
  53   0.0000       0.090925         2.4742
  54   0.0000       0.100750         2.7415
  55   0.0000       0.103406         2.8138

MULLIKEN ATOMIC CHARGES
-----------------------
   0 C :    0.314053
   1 C :   -0.266401
   2 C :   -0.306633
   3 C :   -0.011297
   4 O :   -0.525675
   5 H :    0.141513
   6 H :    0.141923
   7 H :    0.157865
   8 H :    0.136559
   9 H :    0.172412
  10 H :    0.168656
  11 H :    0.134783
  12 C :   -0.019494
  13 H :    0.150239
  14 H :    0.132255
  15 O :   -0.535776
  16 C :    0.100221
  17 C :    0.084147
  18 C :   -0.322233
  19 C :   -0.013009
  20 O :   -0.520084
  21 H :    0.161395
  22 H :    0.167214
  23 O :   -0.599547
  24 H :    0.156949
  25 H :    0.140142
  26 H :    0.154211
  27 H :    0.148616
  28 H :    0.356996
Sum of atomic charges:   -0.0000000

LOEWDIN ATOMIC CHARGES
----------------------
   0 C :    0.181679
   1 C :   -0.216047
   2 C :   -0.216719
   3 C :   -0.033133
   4 O :   -0.329722
   5 H :    0.091595
   6 H :    0.112351
   7 H :    0.124780
   8 H :    0.111877
   9 H :    0.123939
  10 H :    0.115552
  11 H :    0.097390
  12 C :   -0.048381
  13 H :    0.112535
  14 H :    0.097065
  15 O :   -0.333785
  16 C :    0.012393
  17 C :    0.035906
  18 C :   -0.239222
  19 C :   -0.032412
  20 O :   -0.319457
  21 H :    0.116715
  22 H :    0.119083
  23 O :   -0.406252
  24 H :    0.122943
  25 H :    0.107629
  26 H :    0.107751
  27 H :    0.105340
  28 H :    0.278609

  Mayer bond orders larger than 0.100000
B(  0-C ,  1-C ) :   0.9418 B(  0-C ,  4-O ) :   0.9131 B(  0-C ,  5-H ) :   0.9280
B(  0-C , 15-O ) :   0.8461 B(  1-C ,  2-C ) :   0.9587 B(  1-C ,  6-H ) :   0.9385
B(  1-C ,  7-H ) :   0.9365 B(  2-C ,  3-C ) :   0.9644 B(  2-C ,  8-H ) :   0.9447
B(  2-C ,  9-H ) :   0.9383 B(  3-C ,  4-O ) :   0.8225 B(  3-C , 10-H ) :   0.9138
B(  3-C , 11-H ) :   0.9396 B( 12-C , 13-H ) :   0.9171 B( 12-C , 14-H ) :   0.9213
B( 12-C , 15-O ) :   0.8525 B( 12-C , 16-C ) :   0.8931 B( 16-C , 17-C ) :   0.8681
B( 16-C , 20-O ) :   0.8587 B( 16-C , 21-H ) :   0.9315 B( 17-C , 18-C ) :   0.9240
B( 17-C , 22-H ) :   0.9332 B( 17-C , 23-O ) :   0.8995 B( 18-C , 19-C ) :   0.9432
B( 18-C , 24-H ) :   0.9416 B( 18-C , 25-H ) :   0.9396 B( 19-C , 20-O ) :   0.8342
B( 19-C , 26-H ) :   0.9225 B( 19-C , 27-H ) :   0.9379 B( 23-O , 28-H ) :   0.7970

FINAL SINGLE POINT ENERGY      -652.859264791507

DIPOLE MOMENT
-------------
                                X             Y             Z
Electronic contribution:     -3.21056      -1.37687      -1.42655
Nuclear contribution   :      3.77691       1.06652       1.90345
                        -----------------------------------------
Total Dipole Moment    :      0.56635      -0.31035       0.47690
                        -----------------------------------------
Magnitude (a.u.)       :      0.80281
Magnitude (Debye)      :      2.04058

Rotational constants in cm-1:     0.050797     0.017382     0.014936
Rotational constants in MHz :  1522.846197   521.098287   447.764980

                             ****ORCA TERMINATED NORMALLY****
TOTAL RUN TIME: 0 days 0 hours 29 minutes 27 seconds 47 msec
