                         Program Version 4.2.0 -  RELEASE  -
|  1> # Test redundant internal optimization
|  2> #
|  3> ! RKS B3LYP  Opt TightSCF SmallPrint
|  4>
|  5> %basis
|  6>         Basis "6-31G"
|  7> end
|  8>
|  9> %geom
| 10> Constraints
| 11> { D 4  0  15  12  30.0   C } # D for Dihedral angle
| 12> { D 0  15  12  16  150.0   C } # D for Dihedral angle
| 13> { D 0  4  3  2   C } # D for Dihedral angle
| 14> { D 4  3  2  1   C } # D for Dihedral angle
| 15> { D 3  2  1  0   C } # D for Dihedral angle
| 16> { D 2  1  0  4   C } # D for Dihedral angle
| 17> { D 1  0  4  3   C } # D for Dihedral angle
| 18> { D 16  20  19  18   C } # D for Dihedral angle
| 19> { D 20  19  18  17   C } # D for Dihedral angle
| 20> { D 19  18  17  16   C } # D for Dihedral angle
| 21> { D 18  17  16  20   C } # D for Dihedral angle
| 22> { D 17  16  20  19   C } # D for Dihedral angle
| 23> { D 15  12  16  20   C } # D for Dihedral angle
| 24> end
| 25> end
| 26>
| 27>
| 28> #%pal
| 29> #nprocs 8
| 30> #end
| 31>
| 32> * xyz 0 1
| 33> C  -21.048   26.222   46.251
| 34> C  -20.361   27.558   45.944
| 35> C  -20.329   28.222   47.341
| 36> C  -20.110   27.022   48.296
| 37> O  -20.473   25.807   47.535
| 38> H  -20.833   25.428   45.533
| 39> H  -19.344   27.382   45.576
| 40> H  -20.898   28.157   45.201
| 41> H  -19.543   28.978   47.434
| 42> H  -21.289   28.710   47.548
| 43> H  -20.733   27.082   49.195
| 44> H  -19.064   26.913   48.597
| 45> C  -23.091   26.824   47.779
| 46> H  -23.290   25.929   48.382
| 47> H  -22.329   27.423   48.295
| 48> O  -22.586   26.394   46.375
| 49> C  -24.394   27.669   47.716
| 50> C  -24.798   28.172   49.106
| 51> C  -23.844   29.375   49.295
| 52> C  -23.724   29.957   47.864
| 53> O  -24.173   28.894   46.939
| 54> H  -25.167   27.097   47.200
| 55> H  -25.843   28.505   49.097
| 56> O  -24.638   27.097   50.215
| 57> H  -24.222   30.110   50.013
| 58> H  -22.867   29.028   49.654
| 59> H  -22.696   30.241   47.611
| 60> H  -24.379   30.818   47.707
| 61> H  -23.600   26.749   50.244
| 62> *
| 63>
| 64>                          ****END OF INPUT****
 Total Charge           Charge          ....    0
 Multiplicity           Mult            ....    1
 Number of Electrons    NEL             ....  102
FINAL SINGLE POINT ENERGY      -652.815176155316
FINAL SINGLE POINT ENERGY      -652.840555020340
FINAL SINGLE POINT ENERGY      -652.849059090274
FINAL SINGLE POINT ENERGY      -652.851172694740
FINAL SINGLE POINT ENERGY      -652.851479315082
FINAL SINGLE POINT ENERGY      -652.851542900904
FINAL SINGLE POINT ENERGY      -652.851549213375
FINAL SINGLE POINT ENERGY      -652.851549358888
                    ***********************HURRAY********************

CARTESIAN COORDINATES (ANGSTROEM)
---------------------------------
  C    -21.137060   26.290121   46.336919
  C    -20.390877   27.557448   45.904206
  C    -19.988809   28.174580   47.270349
  C    -19.703355   26.926687   48.140963
  O    -20.358422   25.786142   47.449027
  H    -21.128066   25.506603   45.576577
  H    -19.505314   27.272758   45.325097
  H    -21.023634   28.214689   45.304294
  H    -19.114312   28.828583   47.196581
  H    -20.816012   28.768278   47.671555
  H    -20.100102   27.001776   49.158584
  H    -18.636210   26.690487   48.194943
  C    -23.034399   26.822109   47.923675
  H    -23.273277   25.903568   48.475295
  H    -22.292608   27.385463   48.501227
  O    -22.543296   26.484609   46.602112
  C    -24.300812   27.653398   47.728382
  C    -24.957713   28.141398   49.030709
  C    -24.129031   29.422228   49.347078
  C    -23.828996   29.989928   47.942960
  O    -24.049218   28.881876   46.977330
  H    -24.992441   27.070755   47.113054
  H    -25.999529   28.402227   48.833221
  O    -25.025333   27.172781   50.104039
  H    -24.677474   30.122215   49.983213
  H    -23.207151   29.141091   49.874344
  H    -22.802460   30.356911   47.841219
  H    -24.516598   30.794942   47.666985
  H    -24.133491   26.999352   50.469065

 Multiplicity           Mult            ....    1
 Number of Electrons    NEL             ....  102
 Basis Dimension        Dim             ....  149

ORBITAL ENERGIES
----------------

  NO   OCC          E(Eh)            E(eV)
   0   2.0000     -19.151472      -521.1380
   1   2.0000     -19.147347      -521.0258
   2   2.0000     -19.139477      -520.8116
   3   2.0000     -19.135929      -520.7151
   4   2.0000     -10.276735      -279.6442
   5   2.0000     -10.246712      -278.8272
   6   2.0000     -10.234256      -278.4883
   7   2.0000     -10.233570      -278.4696
   8   2.0000     -10.231712      -278.4190
   9   2.0000     -10.230302      -278.3807
  10   2.0000     -10.198120      -277.5050
  11   2.0000     -10.193690      -277.3844
  12   2.0000     -10.183557      -277.1087
  13   2.0000      -1.052826       -28.6489
  14   2.0000      -1.034981       -28.1633
  15   2.0000      -1.017320       -27.6827
  16   2.0000      -0.992666       -27.0118
  17   2.0000      -0.789219       -21.4757
  18   2.0000      -0.784774       -21.3548
  19   2.0000      -0.773031       -21.0352
  20   2.0000      -0.733858       -19.9693
  21   2.0000      -0.682615       -18.5749
  22   2.0000      -0.613407       -16.6917
  23   2.0000      -0.604853       -16.4589
  24   2.0000      -0.595898       -16.2152
  25   2.0000      -0.574639       -15.6367
  26   2.0000      -0.529589       -14.4108
  27   2.0000      -0.511485       -13.9182
  28   2.0000      -0.503692       -13.7062
  29   2.0000      -0.494098       -13.4451
  30   2.0000      -0.469563       -12.7775
  31   2.0000      -0.459699       -12.5090
  32   2.0000      -0.450699       -12.2642
  33   2.0000      -0.435691       -11.8558
  34   2.0000      -0.429068       -11.6755
  35   2.0000      -0.417210       -11.3529
  36   2.0000      -0.407772       -11.0960
  37   2.0000      -0.404081       -10.9956
  38   2.0000      -0.381845       -10.3905
  39   2.0000      -0.374081       -10.1793
  40   2.0000      -0.360750        -9.8165
  41   2.0000      -0.357376        -9.7247
  42   2.0000      -0.346239        -9.4216
  43   2.0000      -0.338661        -9.2154
  44   2.0000      -0.322417        -8.7734
  45   2.0000      -0.315145        -8.5755
  46   2.0000      -0.308943        -8.4068
  47   2.0000      -0.272343        -7.4108
  48   2.0000      -0.262605        -7.1459
  49   2.0000      -0.250434        -6.8146
  50   2.0000      -0.239287        -6.5113
  51   0.0000       0.043090         1.1725
  52   0.0000       0.055463         1.5092
  53   0.0000       0.084727         2.3055
  54   0.0000       0.091710         2.4956
  55   0.0000       0.104226         2.8361

MULLIKEN ATOMIC CHARGES
-----------------------
   0 C :    0.296340
   1 C :   -0.258433
   2 C :   -0.321396
   3 C :   -0.017204
   4 O :   -0.508930
   5 H :    0.164108
   6 H :    0.145636
   7 H :    0.170347
   8 H :    0.146675
   9 H :    0.154393
  10 H :    0.135870
  11 H :    0.151720
  12 C :   -0.000507
  13 H :    0.145719
  14 H :    0.112461
  15 O :   -0.524670
  16 C :    0.091455
  17 C :    0.081208
  18 C :   -0.326371
  19 C :   -0.012578
  20 O :   -0.507913
  21 H :    0.170755
  22 H :    0.171298
  23 O :   -0.597596
  24 H :    0.160689
  25 H :    0.130595
  26 H :    0.138304
  27 H :    0.151843
  28 H :    0.356182
Sum of atomic charges:   -0.0000000

LOEWDIN ATOMIC CHARGES
----------------------
   0 C :    0.181344
   1 C :   -0.224690
   2 C :   -0.223791
   3 C :   -0.036559
   4 O :   -0.321557
   5 H :    0.111144
   6 H :    0.115321
   7 H :    0.130492
   8 H :    0.116792
   9 H :    0.109387
  10 H :    0.096233
  11 H :    0.106890
  12 C :   -0.043423
  13 H :    0.105319
  14 H :    0.086636
  15 O :   -0.320012
  16 C :    0.019480
  17 C :    0.034918
  18 C :   -0.243167
  19 C :   -0.031882
  20 O :   -0.315241
  21 H :    0.122490
  22 H :    0.121300
  23 O :   -0.405476
  24 H :    0.123787
  25 H :    0.101943
  26 H :    0.097543
  27 H :    0.106866
  28 H :    0.277913

  Mayer bond orders larger than 0.100000
B(  0-C ,  1-C ) :   0.9173 B(  0-C ,  4-O ) :   0.9035 B(  0-C ,  5-H ) :   0.9347
B(  0-C , 15-O ) :   0.8765 B(  1-C ,  2-C ) :   0.9546 B(  1-C ,  6-H ) :   0.9349
B(  1-C ,  7-H ) :   0.9331 B(  2-C ,  3-C ) :   0.9484 B(  2-C ,  8-H ) :   0.9446
B(  2-C ,  9-H ) :   0.9375 B(  3-C ,  4-O ) :   0.8417 B(  3-C , 10-H ) :   0.9313
B(  3-C , 11-H ) :   0.9383 B( 12-C , 13-H ) :   0.9106 B( 12-C , 14-H ) :   0.9099
B( 12-C , 15-O ) :   0.8357 B( 12-C , 16-C ) :   0.9035 B( 16-C , 17-C ) :   0.8739
B( 16-C , 20-O ) :   0.8637 B( 16-C , 21-H ) :   0.9271 B( 17-C , 18-C ) :   0.9198
B( 17-C , 22-H ) :   0.9323 B( 17-C , 23-O ) :   0.9010 B( 18-C , 19-C ) :   0.9380
B( 18-C , 24-H ) :   0.9418 B( 18-C , 25-H ) :   0.9412 B( 19-C , 20-O ) :   0.8537
B( 19-C , 26-H ) :   0.9271 B( 19-C , 27-H ) :   0.9371 B( 23-O , 28-H ) :   0.7975

FINAL SINGLE POINT ENERGY      -652.851539973454

DIPOLE MOMENT
-------------
                                X             Y             Z
Electronic contribution:     -3.79362      -4.82228      -1.94013
Nuclear contribution   :      4.75516       6.02972       2.68346
                        -----------------------------------------
Total Dipole Moment    :      0.96154       1.20744       0.74334
                        -----------------------------------------
Magnitude (a.u.)       :      1.71319
Magnitude (Debye)      :      4.35459

Rotational constants in cm-1:     0.044674     0.015990     0.015016
Rotational constants in MHz :  1339.307631   479.375909   450.182947

                             ****ORCA TERMINATED NORMALLY****
TOTAL RUN TIME: 0 days 0 hours 29 minutes 58 seconds 523 msec
