                         Program Version 4.2.0 -  RELEASE  -
|  1> # Test redundant internal optimization
|  2> #
|  3> ! RKS B3LYP  Opt TightSCF SmallPrint
|  4>
|  5> %basis
|  6>         Basis "6-31G"
|  7> end
|  8>
|  9> %geom
| 10> Constraints
| 11> { D 4  0  15  12  45.0   C } # D for Dihedral angle
| 12> { D 0  15  12  16  270.0   C } # D for Dihedral angle
| 13> { D 0  4  3  2   C } # D for Dihedral angle
| 14> { D 4  3  2  1   C } # D for Dihedral angle
| 15> { D 3  2  1  0   C } # D for Dihedral angle
| 16> { D 2  1  0  4   C } # D for Dihedral angle
| 17> { D 1  0  4  3   C } # D for Dihedral angle
| 18> { D 16  20  19  18   C } # D for Dihedral angle
| 19> { D 20  19  18  17   C } # D for Dihedral angle
| 20> { D 19  18  17  16   C } # D for Dihedral angle
| 21> { D 18  17  16  20   C } # D for Dihedral angle
| 22> { D 17  16  20  19   C } # D for Dihedral angle
| 23> { D 15  12  16  20   C } # D for Dihedral angle
| 24> end
| 25> end
| 26>
| 27>
| 28> #%pal
| 29> #nprocs 8
| 30> #end
| 31>
| 32> * xyz 0 1
| 33> C  -21.048   26.222   46.251
| 34> C  -20.361   27.558   45.944
| 35> C  -20.329   28.222   47.341
| 36> C  -20.110   27.022   48.296
| 37> O  -20.473   25.807   47.535
| 38> H  -20.833   25.428   45.533
| 39> H  -19.344   27.382   45.576
| 40> H  -20.898   28.157   45.201
| 41> H  -19.543   28.978   47.434
| 42> H  -21.289   28.710   47.548
| 43> H  -20.733   27.082   49.195
| 44> H  -19.064   26.913   48.597
| 45> C  -23.065   27.161   47.638
| 46> H  -22.300   27.892   47.929
| 47> H  -23.995   27.705   47.427
| 48> O  -22.586   26.394   46.375
| 49> C  -23.330   26.222   48.847
| 50> C  -23.910   26.996   50.036
| 51> C  -25.395   27.138   49.623
| 52> C  -25.682   25.810   48.880
| 53> O  -24.368   25.240   48.515
| 54> H  -22.420   25.663   49.072
| 55> O  -23.781   26.154   51.334
| 56> H  -23.421   27.962   50.200
| 57> H  -26.061   27.291   50.479
| 58> H  -25.518   27.993   48.947
| 59> H  -26.275   25.958   47.970
| 60> H  -26.186   25.076   49.516
| 61> H  -24.265   25.181   51.192
| 62> *
| 63>
| 64>                          ****END OF INPUT****
 Total Charge           Charge          ....    0
 Multiplicity           Mult            ....    1
 Number of Electrons    NEL             ....  102
FINAL SINGLE POINT ENERGY      -652.809053939906
FINAL SINGLE POINT ENERGY      -652.836754500752
FINAL SINGLE POINT ENERGY      -652.851254616489
FINAL SINGLE POINT ENERGY      -652.854033184545
FINAL SINGLE POINT ENERGY      -652.854533798757
FINAL SINGLE POINT ENERGY      -652.854607647245
FINAL SINGLE POINT ENERGY      -652.854613828274
                    ***********************HURRAY********************

CARTESIAN COORDINATES (ANGSTROEM)
---------------------------------
  C    -21.160746   26.329935   46.418097
  C    -20.341125   27.530968   45.921496
  C    -19.989294   28.256197   47.253517
  C    -19.801530   27.076851   48.240976
  O    -20.461427   25.902992   47.613421
  H    -21.122032   25.484829   45.728721
  H    -19.435031   27.159007   45.431791
  H    -20.898187   28.153073   45.217083
  H    -19.079531   28.859526   47.170680
  H    -20.797569   28.925537   47.560488
  H    -20.251576   27.255264   49.222886
  H    -18.749265   26.811782   48.376813
  C    -23.146640   27.231427   47.707606
  H    -22.500115   28.042151   48.062880
  H    -24.068927   27.676972   47.322316
  O    -22.583391   26.523649   46.569602
  C    -23.455653   26.276933   48.868027
  C    -24.106457   26.967696   50.074908
  C    -25.595352   27.026383   49.640508
  C    -25.778963   25.709166   48.846043
  O    -24.419896   25.242981   48.484900
  H    -22.537793   25.751695   49.143640
  O    -23.928418   26.179645   51.284067
  H    -23.688317   27.948735   50.307642
  H    -26.249358   27.096882   50.512972
  H    -25.770250   27.902638   49.005915
  H    -26.366086   25.843008   47.932299
  H    -26.243510   24.919231   49.445199
  H    -24.056560   25.231847   51.066508

 Multiplicity           Mult            ....    1
 Number of Electrons    NEL             ....  102
 Basis Dimension        Dim             ....  149

ORBITAL ENERGIES
----------------

  NO   OCC          E(Eh)            E(eV)
   0   2.0000     -19.147513      -521.0303
   1   2.0000     -19.140849      -520.8490
   2   2.0000     -19.136498      -520.7306
   3   2.0000     -19.135810      -520.7118
   4   2.0000     -10.278273      -279.6860
   5   2.0000     -10.240892      -278.6688
   6   2.0000     -10.233693      -278.4729
   7   2.0000     -10.233470      -278.4669
   8   2.0000     -10.227029      -278.2916
   9   2.0000     -10.226738      -278.2837
  10   2.0000     -10.196318      -277.4559
  11   2.0000     -10.190328      -277.2929
  12   2.0000     -10.187815      -277.2245
  13   2.0000      -1.053470       -28.6664
  14   2.0000      -1.032630       -28.0993
  15   2.0000      -1.003860       -27.3164
  16   2.0000      -0.994138       -27.0519
  17   2.0000      -0.791224       -21.5303
  18   2.0000      -0.783158       -21.3108
  19   2.0000      -0.767708       -20.8904
  20   2.0000      -0.734293       -19.9811
  21   2.0000      -0.677312       -18.4306
  22   2.0000      -0.606584       -16.5060
  23   2.0000      -0.604493       -16.4491
  24   2.0000      -0.599755       -16.3202
  25   2.0000      -0.572053       -15.5664
  26   2.0000      -0.519220       -14.1287
  27   2.0000      -0.517509       -14.0821
  28   2.0000      -0.502639       -13.6775
  29   2.0000      -0.488602       -13.2955
  30   2.0000      -0.471260       -12.8236
  31   2.0000      -0.461891       -12.5687
  32   2.0000      -0.446880       -12.1602
  33   2.0000      -0.442460       -12.0399
  34   2.0000      -0.420762       -11.4495
  35   2.0000      -0.418032       -11.3752
  36   2.0000      -0.401955       -10.9378
  37   2.0000      -0.390920       -10.6375
  38   2.0000      -0.381255       -10.3745
  39   2.0000      -0.371545       -10.1103
  40   2.0000      -0.363174        -9.8825
  41   2.0000      -0.361050        -9.8247
  42   2.0000      -0.346972        -9.4416
  43   2.0000      -0.333438        -9.0733
  44   2.0000      -0.319830        -8.7030
  45   2.0000      -0.313561        -8.5324
  46   2.0000      -0.299026        -8.1369
  47   2.0000      -0.268387        -7.3032
  48   2.0000      -0.264880        -7.2078
  49   2.0000      -0.258346        -7.0300
  50   2.0000      -0.233491        -6.3536
  51   0.0000       0.063038         1.7153
  52   0.0000       0.076004         2.0682
  53   0.0000       0.086261         2.3473
  54   0.0000       0.094196         2.5632
  55   0.0000       0.097623         2.6564

MULLIKEN ATOMIC CHARGES
-----------------------
   0 C :    0.296303
   1 C :   -0.265084
   2 C :   -0.318880
   3 C :   -0.017856
   4 O :   -0.506217
   5 H :    0.169719
   6 H :    0.152932
   7 H :    0.154062
   8 H :    0.147669
   9 H :    0.151480
  10 H :    0.144404
  11 H :    0.153361
  12 C :   -0.018432
  13 H :    0.118951
  14 H :    0.149443
  15 O :   -0.507760
  16 C :    0.061343
  17 C :    0.076361
  18 C :   -0.290286
  19 C :   -0.034327
  20 O :   -0.507654
  21 H :    0.187539
  22 O :   -0.603279
  23 H :    0.143056
  24 H :    0.162215
  25 H :    0.137483
  26 H :    0.150835
  27 H :    0.145926
  28 H :    0.366692
Sum of atomic charges:   -0.0000000

LOEWDIN ATOMIC CHARGES
----------------------
   0 C :    0.176693
   1 C :   -0.226372
   2 C :   -0.224521
   3 C :   -0.036231
   4 O :   -0.321399
   5 H :    0.114822
   6 H :    0.119789
   7 H :    0.121800
   8 H :    0.116816
   9 H :    0.108081
  10 H :    0.101465
  11 H :    0.108107
  12 C :   -0.043575
  13 H :    0.092946
  14 H :    0.111523
  15 O :   -0.310062
  16 C :    0.004949
  17 C :    0.032982
  18 C :   -0.240582
  19 C :   -0.040222
  20 O :   -0.318858
  21 H :    0.127899
  22 O :   -0.415573
  23 H :    0.110356
  24 H :    0.126477
  25 H :    0.109943
  26 H :    0.105870
  27 H :    0.102356
  28 H :    0.284520

  Mayer bond orders larger than 0.100000
B(  0-C ,  1-C ) :   0.9149 B(  0-C ,  4-O ) :   0.8912 B(  0-C ,  5-H ) :   0.9353
B(  0-C , 15-O ) :   0.8963 B(  1-C ,  2-C ) :   0.9545 B(  1-C ,  6-H ) :   0.9349
B(  1-C ,  7-H ) :   0.9376 B(  2-C ,  3-C ) :   0.9467 B(  2-C ,  8-H ) :   0.9442
B(  2-C ,  9-H ) :   0.9387 B(  3-C ,  4-O ) :   0.8419 B(  3-C , 10-H ) :   0.9316
B(  3-C , 11-H ) :   0.9389 B( 12-C , 13-H ) :   0.9014 B( 12-C , 14-H ) :   0.9400
B( 12-C , 15-O ) :   0.8572 B( 12-C , 16-C ) :   0.8790 B( 16-C , 17-C ) :   0.8964
B( 16-C , 20-O ) :   0.8607 B( 16-C , 21-H ) :   0.9125 B( 17-C , 18-C ) :   0.9096
B( 17-C , 22-O ) :   0.8936 B( 17-C , 23-H ) :   0.9341 B( 18-C , 19-C ) :   0.9410
B( 18-C , 24-H ) :   0.9373 B( 18-C , 25-H ) :   0.9354 B( 19-C , 20-O ) :   0.8532
B( 19-C , 26-H ) :   0.9331 B( 19-C , 27-H ) :   0.9374 B( 22-O , 28-H ) :   0.7932

FINAL SINGLE POINT ENERGY      -652.854613010709

DIPOLE MOMENT
-------------
                                X             Y             Z
Electronic contribution:     -0.89221      -5.37803       0.16225
Nuclear contribution   :      1.05056       6.73794      -0.39761
                        -----------------------------------------
Total Dipole Moment    :      0.15835       1.35991      -0.23535
                        -----------------------------------------
Magnitude (a.u.)       :      1.38918
Magnitude (Debye)      :      3.53101

Rotational constants in cm-1:     0.053226     0.014611     0.013338
Rotational constants in MHz :  1595.669403   438.037449   399.857362

                             ****ORCA TERMINATED NORMALLY****
TOTAL RUN TIME: 0 days 2 hours 18 minutes 3 seconds 849 msec
