                         Program Version 4.2.1 -  RELEASE  -
|  1> # Test redundant internal optimization
|  2> #
|  3> ! RKS B3LYP  Opt TightSCF SmallPrint
|  4>
|  5> %basis
|  6>         Basis "6-31G"
|  7> end
|  8>
|  9> %geom
| 10> Constraints
| 11> { D 4  0  19  14  315.0   C } # D for Dihedral angle
| 12> { D 0  19  14  12  195.0   C } # D for Dihedral angle
| 13> { D 0  4  3  2   C } # D for Dihedral angle
| 14> { D 4  3  2  1   C } # D for Dihedral angle
| 15> { D 3  2  1  0   C } # D for Dihedral angle
| 16> { D 2  1  0  4   C } # D for Dihedral angle
| 17> { D 1  0  4  3   C } # D for Dihedral angle
| 18> { D 14  15  16  17   C } # D for Dihedral angle
| 19> { D 15  16  17  12   C } # D for Dihedral angle
| 20> { D 16  17  12  14   C } # D for Dihedral angle
| 21> { D 17  12  14  15   C } # D for Dihedral angle
| 22> { D 12  14  15  16   C } # D for Dihedral angle
| 23> end
| 24> end
| 25>
| 26>
| 27> #%pal
| 28> #nprocs 8
| 29> #end
| 30>
| 31> * xyz 0 1
| 32> C  -21.048   26.222   46.251
| 33> C  -20.361   27.558   45.944
| 34> C  -20.329   28.222   47.341
| 35> C  -20.110   27.022   48.296
| 36> O  -20.473   25.807   47.535
| 37> H  -20.833   25.428   45.533
| 38> H  -19.344   27.382   45.576
| 39> H  -20.898   28.157   45.201
| 40> H  -19.543   28.978   47.434
| 41> H  -21.289   28.710   47.548
| 42> H  -20.733   27.082   49.195
| 43> H  -19.064   26.913   48.597
| 44> C  -24.643   25.379   46.822
| 45> H  -25.196   24.778   47.560
| 46> C  -23.132   25.318   47.072
| 47> C  -22.767   23.946   46.458
| 48> C  -23.726   23.837   45.245
| 49> O  -24.810   24.818   45.477
| 50> H  -25.057   26.388   46.800
| 51> O  -22.472   26.381   46.366
| 52> H  -22.868   25.392   48.132
| 53> H  -21.715   23.877   46.165
| 54> H  -22.966   23.144   47.180
| 55> H  -24.163   22.838   45.143
| 56> H  -23.241   24.110   44.303
| 57> *
| 58>
| 59>                          ****END OF INPUT****
 Total Charge           Charge          ....    0
 Multiplicity           Mult            ....    1
 Number of Electrons    NEL             ....   86
FINAL SINGLE POINT ENERGY      -538.431718543588
FINAL SINGLE POINT ENERGY      -538.436169493674
FINAL SINGLE POINT ENERGY      -538.436557300971
FINAL SINGLE POINT ENERGY      -538.436635622486
FINAL SINGLE POINT ENERGY      -538.436645116323
FINAL SINGLE POINT ENERGY      -538.436646978133
                    ***********************HURRAY********************

CARTESIAN COORDINATES (ANGSTROEM)
---------------------------------
  C    -20.976112   26.224064   46.233787
  C    -20.424415   27.624043   45.961307
  C    -20.390714   28.230119   47.381907
  C    -20.027436   27.022748   48.274920
  O    -20.321062   25.811808   47.460700
  H    -20.720881   25.465499   45.488560
  H    -19.416195   27.538416   45.540597
  H    -21.055678   28.184471   45.268702
  H    -19.666888   29.045621   47.474723
  H    -21.381600   28.615751   47.638069
  H    -20.611782   26.978848   49.197883
  H    -18.962452   26.980531   48.521462
  C    -24.593161   25.448864   46.746304
  H    -25.221438   24.921974   47.479178
  C    -23.112809   25.265642   47.074851
  C    -22.842027   23.858993   46.511796
  C    -23.741261   23.796549   45.255109
  O    -24.745160   24.871939   45.408358
  H    -24.885592   26.497956   46.688213
  O    -22.405879   26.340455   46.373720
  H    -22.889662   25.330033   48.144709
  H    -21.786001   23.674968   46.303231
  H    -23.158864   23.121137   47.258574
  H    -24.255245   22.834203   45.154024
  H    -23.188685   24.002366   44.333315

 Multiplicity           Mult            ....    1
 Number of Electrons    NEL             ....   86
 Basis Dimension        Dim             ....  127

ORBITAL ENERGIES
----------------

  NO   OCC          E(Eh)            E(eV)
   0   2.0000     -19.144057      -520.9363
   1   2.0000     -19.140838      -520.8487
   2   2.0000     -19.124911      -520.4153
   3   2.0000     -10.277973      -279.6779
   4   2.0000     -10.235879      -278.5324
   5   2.0000     -10.228286      -278.3258
   6   2.0000     -10.218660      -278.0639
   7   2.0000     -10.218338      -278.0551
   8   2.0000     -10.186314      -277.1837
   9   2.0000     -10.185118      -277.1512
  10   2.0000     -10.183484      -277.1067
  11   2.0000      -1.055175       -28.7128
  12   2.0000      -1.011452       -27.5230
  13   2.0000      -0.987529       -26.8720
  14   2.0000      -0.793005       -21.5788
  15   2.0000      -0.774386       -21.0721
  16   2.0000      -0.743083       -20.2203
  17   2.0000      -0.718593       -19.5539
  18   2.0000      -0.612890       -16.6776
  19   2.0000      -0.601783       -16.3754
  20   2.0000      -0.592740       -16.1293
  21   2.0000      -0.562620       -15.3097
  22   2.0000      -0.526320       -14.3219
  23   2.0000      -0.494130       -13.4460
  24   2.0000      -0.490529       -13.3480
  25   2.0000      -0.478018       -13.0075
  26   2.0000      -0.455268       -12.3885
  27   2.0000      -0.439327       -11.9547
  28   2.0000      -0.421481       -11.4691
  29   2.0000      -0.414962       -11.2917
  30   2.0000      -0.404917       -11.0183
  31   2.0000      -0.387349       -10.5403
  32   2.0000      -0.370198       -10.0736
  33   2.0000      -0.360265        -9.8033
  34   2.0000      -0.359626        -9.7859
  35   2.0000      -0.357363        -9.7243
  36   2.0000      -0.343814        -9.3557
  37   2.0000      -0.330870        -9.0034
  38   2.0000      -0.303153        -8.2492
  39   2.0000      -0.292948        -7.9715
  40   2.0000      -0.263146        -7.1606
  41   2.0000      -0.255884        -6.9629
  42   2.0000      -0.232074        -6.3150
  43   0.0000       0.076039         2.0691
  44   0.0000       0.097898         2.6639
  45   0.0000       0.101679         2.7668
  46   0.0000       0.109163         2.9705
  47   0.0000       0.117934         3.2091

MULLIKEN ATOMIC CHARGES
-----------------------
   0 C :    0.293056
   1 C :   -0.261363
   2 C :   -0.298043
   3 C :   -0.008985
   4 O :   -0.519993
   5 H :    0.144914
   6 H :    0.144050
   7 H :    0.163834
   8 H :    0.142248
   9 H :    0.160511
  10 H :    0.143915
  11 H :    0.145623
  12 C :   -0.000623
  13 H :    0.123998
  14 C :    0.089725
  15 C :   -0.322934
  16 C :    0.010872
  17 O :   -0.521039
  18 H :    0.164997
  19 O :   -0.525595
  20 H :    0.141682
  21 H :    0.166475
  22 H :    0.146747
  23 H :    0.133619
  24 H :    0.142308
Sum of atomic charges:   -0.0000000

LOEWDIN ATOMIC CHARGES
----------------------
   0 C :    0.172755
   1 C :   -0.212999
   2 C :   -0.216189
   3 C :   -0.029345
   4 O :   -0.333741
   5 H :    0.094855
   6 H :    0.113470
   7 H :    0.127810
   8 H :    0.114248
   9 H :    0.118350
  10 H :    0.102948
  11 H :    0.104079
  12 C :   -0.034174
  13 H :    0.090947
  14 C :    0.040441
  15 C :   -0.238661
  16 C :   -0.027928
  17 O :   -0.330290
  18 H :    0.121876
  19 O :   -0.324381
  20 H :    0.103180
  21 H :    0.125621
  22 H :    0.117097
  23 H :    0.097828
  24 H :    0.102203

  Mayer bond orders larger than 0.100000
B(  0-C ,  1-C ) :   0.9490 B(  0-C ,  4-O ) :   0.8879 B(  0-C ,  5-H ) :   0.9178
B(  0-C , 19-O ) :   0.8605 B(  1-C ,  2-C ) :   0.9544 B(  1-C ,  6-H ) :   0.9395
B(  1-C ,  7-H ) :   0.9349 B(  2-C ,  3-C ) :   0.9554 B(  2-C ,  8-H ) :   0.9449
B(  2-C ,  9-H ) :   0.9445 B(  3-C ,  4-O ) :   0.8354 B(  3-C , 10-H ) :   0.9355
B(  3-C , 11-H ) :   0.9404 B( 12-C , 13-H ) :   0.9159 B( 12-C , 14-C ) :   0.9336
B( 12-C , 17-O ) :   0.8704 B( 12-C , 18-H ) :   0.9302 B( 14-C , 15-C ) :   0.9337
B( 14-C , 19-O ) :   0.8237 B( 14-C , 20-H ) :   0.9220 B( 15-C , 16-C ) :   0.9406
B( 15-C , 21-H ) :   0.9306 B( 15-C , 22-H ) :   0.9372 B( 16-C , 17-O ) :   0.8598
B( 16-C , 23-H ) :   0.9336 B( 16-C , 24-H ) :   0.9380

FINAL SINGLE POINT ENERGY      -538.436647105271

DIPOLE MOMENT
-------------
                                X             Y             Z
Electronic contribution:     -1.95342      -0.96203      -1.24091
Nuclear contribution   :      2.73082       1.12504       1.88042
                        -----------------------------------------
Total Dipole Moment    :      0.77740       0.16301       0.63950
                        -----------------------------------------
Magnitude (a.u.)       :      1.01975
Magnitude (Debye)      :      2.59200

Rotational constants in cm-1:     0.085720     0.020928     0.020228
Rotational constants in MHz :  2569.823614   627.401137   606.412304

                             ****ORCA TERMINATED NORMALLY****
TOTAL RUN TIME: 0 days 0 hours 6 minutes 53 seconds 453 msec
