                         Program Version 4.2.0 -  RELEASE  -
|  1> # Test redundant internal optimization
|  2> #
|  3> ! RKS B3LYP  Opt TightSCF SmallPrint
|  4>
|  5> %basis
|  6>         Basis "6-31G"
|  7> end
|  8>
|  9> %geom
| 10> Constraints
| 11> { D 4  0  15  12  15.0   C } # D for Dihedral angle
| 12> { D 0  15  12  16  285.0   C } # D for Dihedral angle
| 13> { D 0  4  3  2   C } # D for Dihedral angle
| 14> { D 4  3  2  1   C } # D for Dihedral angle
| 15> { D 3  2  1  0   C } # D for Dihedral angle
| 16> { D 2  1  0  4   C } # D for Dihedral angle
| 17> { D 1  0  4  3   C } # D for Dihedral angle
| 18> { D 16  20  19  18   C } # D for Dihedral angle
| 19> { D 20  19  18  17   C } # D for Dihedral angle
| 20> { D 19  18  17  16   C } # D for Dihedral angle
| 21> { D 18  17  16  20   C } # D for Dihedral angle
| 22> { D 17  16  20  19   C } # D for Dihedral angle
| 23> { D 15  12  16  20   C } # D for Dihedral angle
| 24> end
| 25> end
| 26>
| 27>
| 28> #%pal
| 29> #nprocs 8
| 30> #end
| 31>
| 32> * xyz 0 1
| 33> C  -21.048   26.222   46.251
| 34> C  -20.361   27.558   45.944
| 35> C  -20.329   28.222   47.341
| 36> C  -20.110   27.022   48.296
| 37> O  -20.473   25.807   47.535
| 38> H  -20.833   25.428   45.533
| 39> H  -19.344   27.382   45.576
| 40> H  -20.898   28.157   45.201
| 41> H  -19.543   28.978   47.434
| 42> H  -21.289   28.710   47.548
| 43> H  -20.733   27.082   49.195
| 44> H  -19.064   26.913   48.597
| 45> C  -23.128   26.462   47.829
| 46> H  -22.497   27.138   48.419
| 47> H  -24.153   26.854   47.839
| 48> O  -22.586   26.394   46.375
| 49> C  -23.145   25.075   48.529
| 50> C  -23.792   25.160   49.916
| 51> C  -25.297   25.172   49.561
| 52> C  -25.374   24.241   48.324
| 53> O  -23.999   24.139   47.790
| 54> H  -22.136   24.659   48.525
| 55> H  -23.540   24.270   50.504
| 56> O  -23.353   26.416   50.718
| 57> H  -25.931   24.825   50.384
| 58> H  -25.615   26.188   49.299
| 59> H  -26.033   24.636   47.543
| 60> H  -25.696   23.229   48.583
| 61> H  -23.595   27.320   50.150
| 62> *
| 63>
| 64>                          ****END OF INPUT****
 Total Charge           Charge          ....    0
 Multiplicity           Mult            ....    1
 Number of Electrons    NEL             ....  102
FINAL SINGLE POINT ENERGY      -652.822532222824
FINAL SINGLE POINT ENERGY      -652.845852204821
FINAL SINGLE POINT ENERGY      -652.850856309990
FINAL SINGLE POINT ENERGY      -652.853076205026
FINAL SINGLE POINT ENERGY      -652.853356244387
FINAL SINGLE POINT ENERGY      -652.853442231362
FINAL SINGLE POINT ENERGY      -652.853449978892
FINAL SINGLE POINT ENERGY      -652.853450967594
                    ***********************HURRAY********************

CARTESIAN COORDINATES (ANGSTROEM)
---------------------------------
  C    -21.084132   26.253375   46.341191
  C    -20.409041   27.566859   45.934677
  C    -20.185884   28.249742   47.308837
  C    -19.879218   27.056191   48.244207
  O    -20.374053   25.845195   47.531902
  H    -20.965729   25.446472   45.616206
  H    -19.452467   27.345836   45.447204
  H    -21.031440   28.151662   45.254370
  H    -19.368763   28.977497   47.291065
  H    -21.095140   28.774240   47.621460
  H    -20.378628   27.118997   49.215372
  H    -18.806910   26.908185   48.400958
  C    -23.119068   26.480858   47.822818
  H    -22.595132   27.199917   48.464999
  H    -24.125565   26.864029   47.624114
  O    -22.524296   26.408364   46.499526
  C    -23.187226   25.129554   48.545168
  C    -23.875606   25.210110   49.918929
  C    -25.382721   25.145880   49.527901
  C    -25.375835   24.191291   48.312256
  O    -23.979960   24.144848   47.813056
  H    -22.178807   24.719375   48.608578
  H    -23.597850   24.338376   50.515888
  O    -23.500815   26.350646   50.736086
  H    -26.011320   24.788092   50.347840
  H    -25.731147   26.149490   49.247689
  H    -26.035708   24.525829   47.504988
  H    -25.651653   23.169235   48.589646
  H    -23.990889   27.148856   50.452069

 Multiplicity           Mult            ....    1
 Number of Electrons    NEL             ....  102
 Basis Dimension        Dim             ....  149

ORBITAL ENERGIES
----------------

  NO   OCC          E(Eh)            E(eV)
   0   2.0000     -19.149066      -521.0726
   1   2.0000     -19.148399      -521.0544
   2   2.0000     -19.133385      -520.6459
   3   2.0000     -19.129795      -520.5482
   4   2.0000     -10.274980      -279.5964
   5   2.0000     -10.241450      -278.6840
   6   2.0000     -10.230485      -278.3856
   7   2.0000     -10.227145      -278.2948
   8   2.0000     -10.226020      -278.2641
   9   2.0000     -10.218051      -278.0473
  10   2.0000     -10.193835      -277.3883
  11   2.0000     -10.191479      -277.3242
  12   2.0000     -10.184078      -277.1228
  13   2.0000      -1.051433       -28.6109
  14   2.0000      -1.029969       -28.0269
  15   2.0000      -1.010213       -27.4893
  16   2.0000      -0.988592       -26.9009
  17   2.0000      -0.788769       -21.4635
  18   2.0000      -0.778996       -21.1976
  19   2.0000      -0.763890       -20.7865
  20   2.0000      -0.731647       -19.9091
  21   2.0000      -0.676654       -18.4127
  22   2.0000      -0.608356       -16.5542
  23   2.0000      -0.602453       -16.3936
  24   2.0000      -0.598160       -16.2768
  25   2.0000      -0.562134       -15.2965
  26   2.0000      -0.519153       -14.1269
  27   2.0000      -0.513796       -13.9811
  28   2.0000      -0.500375       -13.6159
  29   2.0000      -0.491524       -13.3750
  30   2.0000      -0.463397       -12.6097
  31   2.0000      -0.456716       -12.4279
  32   2.0000      -0.436903       -11.8887
  33   2.0000      -0.429430       -11.6854
  34   2.0000      -0.425031       -11.5657
  35   2.0000      -0.415656       -11.3106
  36   2.0000      -0.407951       -11.1009
  37   2.0000      -0.397705       -10.8221
  38   2.0000      -0.376693       -10.2503
  39   2.0000      -0.372261       -10.1297
  40   2.0000      -0.359337        -9.7781
  41   2.0000      -0.354636        -9.6501
  42   2.0000      -0.347060        -9.4440
  43   2.0000      -0.327716        -8.9176
  44   2.0000      -0.321935        -8.7603
  45   2.0000      -0.313400        -8.5281
  46   2.0000      -0.305243        -8.3061
  47   2.0000      -0.268803        -7.3145
  48   2.0000      -0.258777        -7.0417
  49   2.0000      -0.254164        -6.9161
  50   2.0000      -0.226314        -6.1583
  51   0.0000       0.051239         1.3943
  52   0.0000       0.075530         2.0553
  53   0.0000       0.085057         2.3145
  54   0.0000       0.093010         2.5309
  55   0.0000       0.103359         2.8125

MULLIKEN ATOMIC CHARGES
-----------------------
   0 C :    0.297802
   1 C :   -0.255952
   2 C :   -0.312650
   3 C :   -0.023386
   4 O :   -0.512333
   5 H :    0.166675
   6 H :    0.145140
   7 H :    0.158406
   8 H :    0.148030
   9 H :    0.150447
  10 H :    0.157025
  11 H :    0.151556
  12 C :   -0.020279
  13 H :    0.123541
  14 H :    0.140840
  15 O :   -0.522970
  16 C :    0.081293
  17 C :    0.079136
  18 C :   -0.326003
  19 C :   -0.011520
  20 O :   -0.506237
  21 H :    0.192881
  22 H :    0.167123
  23 O :   -0.603383
  24 H :    0.157343
  25 H :    0.129150
  26 H :    0.145623
  27 H :    0.148136
  28 H :    0.354566
Sum of atomic charges:   -0.0000000

LOEWDIN ATOMIC CHARGES
----------------------
   0 C :    0.181660
   1 C :   -0.221904
   2 C :   -0.221402
   3 C :   -0.036131
   4 O :   -0.317953
   5 H :    0.111901
   6 H :    0.114352
   7 H :    0.124320
   8 H :    0.117479
   9 H :    0.110599
  10 H :    0.106922
  11 H :    0.107480
  12 C :   -0.047779
  13 H :    0.092423
  14 H :    0.106817
  15 O :   -0.324860
  16 C :    0.004762
  17 C :    0.033480
  18 C :   -0.242113
  19 C :   -0.031154
  20 O :   -0.314980
  21 H :    0.130618
  22 H :    0.119020
  23 O :   -0.411897
  24 H :    0.121862
  25 H :    0.101675
  26 H :    0.103171
  27 H :    0.105186
  28 H :    0.276446

  Mayer bond orders larger than 0.100000
B(  0-C ,  1-C ) :   0.9245 B(  0-C ,  4-O ) :   0.8979 B(  0-C ,  5-H ) :   0.9316
B(  0-C , 15-O ) :   0.8586 B(  1-C ,  2-C ) :   0.9521 B(  1-C ,  6-H ) :   0.9351
B(  1-C ,  7-H ) :   0.9371 B(  2-C ,  3-C ) :   0.9508 B(  2-C ,  8-H ) :   0.9449
B(  2-C ,  9-H ) :   0.9442 B(  3-C ,  4-O ) :   0.8288 B(  3-C , 10-H ) :   0.9277
B(  3-C , 11-H ) :   0.9394 B( 12-C , 13-H ) :   0.8978 B( 12-C , 14-H ) :   0.9411
B( 12-C , 15-O ) :   0.8612 B( 12-C , 16-C ) :   0.8832 B( 16-C , 17-C ) :   0.8710
B( 16-C , 20-O ) :   0.8580 B( 16-C , 21-H ) :   0.9119 B( 17-C , 18-C ) :   0.9254
B( 17-C , 22-H ) :   0.9325 B( 17-C , 23-O ) :   0.8891 B( 18-C , 19-C ) :   0.9399
B( 18-C , 24-H ) :   0.9413 B( 18-C , 25-H ) :   0.9407 B( 19-C , 20-O ) :   0.8551
B( 19-C , 26-H ) :   0.9306 B( 19-C , 27-H ) :   0.9375 B( 23-O , 28-H ) :   0.7997

FINAL SINGLE POINT ENERGY      -652.853450832061

DIPOLE MOMENT
-------------
                                X             Y             Z
Electronic contribution:      0.05813      -3.97115      -0.87412
Nuclear contribution   :     -0.39336       5.17348       1.19577
                        -----------------------------------------
Total Dipole Moment    :     -0.33524       1.20233       0.32165
                        -----------------------------------------
Magnitude (a.u.)       :      1.28897
Magnitude (Debye)      :      3.27631

Rotational constants in cm-1:     0.051510     0.015570     0.013655
Rotational constants in MHz :  1544.243333   466.769803   409.366683

                             ****ORCA TERMINATED NORMALLY****
TOTAL RUN TIME: 0 days 0 hours 25 minutes 51 seconds 493 msec
