                         Program Version 4.2.1 -  RELEASE  -
|  1> # Test redundant internal optimization
|  2> #
|  3> ! RKS B3LYP  Opt TightSCF SmallPrint
|  4>
|  5> %basis
|  6>         Basis "6-31G"
|  7> end
|  8>
|  9> %geom
| 10> Constraints
| 11> { D 4  0  19  14  75.0   C } # D for Dihedral angle
| 12> { D 0  19  14  12  120.0   C } # D for Dihedral angle
| 13> { D 0  4  3  2   C } # D for Dihedral angle
| 14> { D 4  3  2  1   C } # D for Dihedral angle
| 15> { D 3  2  1  0   C } # D for Dihedral angle
| 16> { D 2  1  0  4   C } # D for Dihedral angle
| 17> { D 1  0  4  3   C } # D for Dihedral angle
| 18> { D 14  15  16  17   C } # D for Dihedral angle
| 19> { D 15  16  17  12   C } # D for Dihedral angle
| 20> { D 16  17  12  14   C } # D for Dihedral angle
| 21> { D 17  12  14  15   C } # D for Dihedral angle
| 22> { D 12  14  15  16   C } # D for Dihedral angle
| 23> end
| 24> end
| 25>
| 26>
| 27> #%pal
| 28> #nprocs 8
| 29> #end
| 30>
| 31> * xyz 0 1
| 32> C  -21.048   26.222   46.251
| 33> C  -20.361   27.558   45.944
| 34> C  -20.329   28.222   47.341
| 35> C  -20.110   27.022   48.296
| 36> O  -20.473   25.807   47.535
| 37> H  -20.833   25.428   45.533
| 38> H  -19.344   27.382   45.576
| 39> H  -20.898   28.157   45.201
| 40> H  -19.543   28.978   47.434
| 41> H  -21.289   28.710   47.548
| 42> H  -20.733   27.082   49.195
| 43> H  -19.064   26.913   48.597
| 44> C  -23.738   28.447   46.139
| 45> H  -23.822   29.474   46.528
| 46> C  -22.881   27.571   47.060
| 47> C  -23.881   27.229   48.189
| 48> C  -25.232   27.111   47.439
| 49> O  -25.052   27.793   46.139
| 50> H  -23.399   28.483   45.103
| 51> O  -22.472   26.381   46.366
| 52> H  -21.984   28.082   47.427
| 53> H  -23.619   26.311   48.724
| 54> H  -23.916   28.044   48.922
| 55> H  -26.056   27.585   47.982
| 56> H  -25.501   26.072   47.224
| 57> *
| 58>
| 59>                          ****END OF INPUT****
 Total Charge           Charge          ....    0
 Multiplicity           Mult            ....    1
 Number of Electrons    NEL             ....   86
FINAL SINGLE POINT ENERGY      -538.351669623949
FINAL SINGLE POINT ENERGY      -538.418357322684
FINAL SINGLE POINT ENERGY      -538.422809435435
FINAL SINGLE POINT ENERGY      -538.423870140559
FINAL SINGLE POINT ENERGY      -538.424085333011
FINAL SINGLE POINT ENERGY      -538.424239867190
FINAL SINGLE POINT ENERGY      -538.424263854490
FINAL SINGLE POINT ENERGY      -538.424267441313
FINAL SINGLE POINT ENERGY      -538.424266481558
                    ***********************HURRAY********************

CARTESIAN COORDINATES (ANGSTROEM)
---------------------------------
  C    -21.113892   26.361801   46.426419
  C    -20.202209   27.498104   45.933874
  C    -19.832233   28.221322   47.265165
  C    -19.749603   27.042240   48.270353
  O    -20.471016   25.910386   47.643782
  H    -21.095760   25.498837   45.758552
  H    -19.311552   27.054808   45.477965
  H    -20.687138   28.147822   45.200530
  H    -18.878540   28.754209   47.192564
  H    -20.590686   28.954714   47.548936
  H    -20.207178   27.268288   49.238668
  H    -18.719558   26.712411   48.433957
  C    -23.984336   28.522828   46.208115
  H    -24.249027   29.511204   46.615192
  C    -23.132416   27.739253   47.207000
  C    -24.202214   27.209580   48.183235
  C    -25.415732   26.933853   47.265530
  O    -25.173112   27.694571   46.018411
  H    -23.508934   28.641816   45.233004
  O    -22.528538   26.588610   46.539147
  H    -22.388543   28.357221   47.712376
  H    -23.844332   26.316483   48.699876
  H    -24.436609   27.979699   48.927635
  H    -26.362524   27.263624   47.706893
  H    -25.492316   25.880315   46.985822

 Multiplicity           Mult            ....    1
 Number of Electrons    NEL             ....   86
 Basis Dimension        Dim             ....  127

ORBITAL ENERGIES
----------------

  NO   OCC          E(Eh)            E(eV)
   0   2.0000     -19.141667      -520.8713
   1   2.0000     -19.141159      -520.8574
   2   2.0000     -19.125603      -520.4341
   3   2.0000     -10.279469      -279.7186
   4   2.0000     -10.241726      -278.6915
   5   2.0000     -10.231677      -278.4181
   6   2.0000     -10.222064      -278.1565
   7   2.0000     -10.216591      -278.0076
   8   2.0000     -10.197567      -277.4899
   9   2.0000     -10.194437      -277.4047
  10   2.0000     -10.182289      -277.0742
  11   2.0000      -1.051698       -28.6182
  12   2.0000      -1.013696       -27.5841
  13   2.0000      -0.990954       -26.9652
  14   2.0000      -0.791890       -21.5484
  15   2.0000      -0.785649       -21.3786
  16   2.0000      -0.739828       -20.1318
  17   2.0000      -0.724116       -19.7042
  18   2.0000      -0.621822       -16.9206
  19   2.0000      -0.607893       -16.5416
  20   2.0000      -0.596011       -16.2183
  21   2.0000      -0.566228       -15.4078
  22   2.0000      -0.525127       -14.2894
  23   2.0000      -0.505240       -13.7483
  24   2.0000      -0.484374       -13.1805
  25   2.0000      -0.481530       -13.1031
  26   2.0000      -0.453069       -12.3286
  27   2.0000      -0.446469       -12.1490
  28   2.0000      -0.427182       -11.6242
  29   2.0000      -0.420131       -11.4324
  30   2.0000      -0.413125       -11.2417
  31   2.0000      -0.388588       -10.5740
  32   2.0000      -0.372601       -10.1390
  33   2.0000      -0.369374       -10.0512
  34   2.0000      -0.364039        -9.9060
  35   2.0000      -0.362377        -9.8608
  36   2.0000      -0.344199        -9.3661
  37   2.0000      -0.315932        -8.5969
  38   2.0000      -0.305137        -8.3032
  39   2.0000      -0.294036        -8.0011
  40   2.0000      -0.267151        -7.2695
  41   2.0000      -0.253660        -6.9024
  42   2.0000      -0.230989        -6.2855
  43   0.0000       0.064566         1.7569
  44   0.0000       0.089883         2.4458
  45   0.0000       0.093610         2.5472
  46   0.0000       0.109679         2.9845
  47   0.0000       0.114824         3.1245

MULLIKEN ATOMIC CHARGES
-----------------------
   0 C :    0.300889
   1 C :   -0.280146
   2 C :   -0.319430
   3 C :   -0.009041
   4 O :   -0.503297
   5 H :    0.168189
   6 H :    0.158599
   7 H :    0.149173
   8 H :    0.146478
   9 H :    0.148842
  10 H :    0.142644
  11 H :    0.148811
  12 C :    0.012602
  13 H :    0.119224
  14 C :    0.052370
  15 C :   -0.281770
  16 C :    0.006100
  17 O :   -0.519566
  18 H :    0.155078
  19 O :   -0.514072
  20 H :    0.125168
  21 H :    0.169727
  22 H :    0.135390
  23 H :    0.130189
  24 H :    0.157849
Sum of atomic charges:   -0.0000000

LOEWDIN ATOMIC CHARGES
----------------------
   0 C :    0.174884
   1 C :   -0.229384
   2 C :   -0.225184
   3 C :   -0.034396
   4 O :   -0.323050
   5 H :    0.114223
   6 H :    0.123793
   7 H :    0.117955
   8 H :    0.116156
   9 H :    0.106258
  10 H :    0.101589
  11 H :    0.105504
  12 C :   -0.039908
  13 H :    0.088799
  14 C :    0.034079
  15 C :   -0.226439
  16 C :   -0.026017
  17 O :   -0.328882
  18 H :    0.115073
  19 O :   -0.311091
  20 H :    0.098589
  21 H :    0.131247
  22 H :    0.108981
  23 H :    0.096465
  24 H :    0.110753

  Mayer bond orders larger than 0.100000
B(  0-C ,  1-C ) :   0.9159 B(  0-C ,  4-O ) :   0.8954 B(  0-C ,  5-H ) :   0.9358
B(  0-C , 19-O ) :   0.9178 B(  1-C ,  2-C ) :   0.9547 B(  1-C ,  6-H ) :   0.9351
B(  1-C ,  7-H ) :   0.9363 B(  2-C ,  3-C ) :   0.9454 B(  2-C ,  8-H ) :   0.9441
B(  2-C ,  9-H ) :   0.9360 B(  3-C ,  4-O ) :   0.8509 B(  3-C , 10-H ) :   0.9341
B(  3-C , 11-H ) :   0.9385 B( 12-C , 13-H ) :   0.9115 B( 12-C , 14-C ) :   0.9291
B( 12-C , 17-O ) :   0.8761 B( 12-C , 18-H ) :   0.9333 B( 14-C , 15-C ) :   0.9463
B( 14-C , 19-O ) :   0.8161 B( 14-C , 20-H ) :   0.9072 B( 15-C , 16-C ) :   0.9484
B( 15-C , 21-H ) :   0.9367 B( 15-C , 22-H ) :   0.9403 B( 16-C , 17-O ) :   0.8517
B( 16-C , 23-H ) :   0.9343 B( 16-C , 24-H ) :   0.9358

FINAL SINGLE POINT ENERGY      -538.424264486258

DIPOLE MOMENT
-------------
                                X             Y             Z
Electronic contribution:     -2.00625      -3.55243      -1.99571
Nuclear contribution   :      2.98300       4.65713       2.62617
                        -----------------------------------------
Total Dipole Moment    :      0.97675       1.10470       0.63046
                        -----------------------------------------
Magnitude (a.u.)       :      1.60371
Magnitude (Debye)      :      4.07631

Rotational constants in cm-1:     0.080213     0.021437     0.020277
Rotational constants in MHz :  2404.721876   642.651477   607.897950

                             ****ORCA TERMINATED NORMALLY****
TOTAL RUN TIME: 0 days 0 hours 10 minutes 14 seconds 505 msec
