                         Program Version 4.2.0 -  RELEASE  -
|  1> # Test redundant internal optimization
|  2> #
|  3> ! RKS B3LYP  Opt TightSCF SmallPrint
|  4>
|  5> %basis
|  6>         Basis "6-31G"
|  7> end
|  8>
|  9> %geom
| 10> Constraints
| 11> { D 4  0  15  12  225.0   C } # D for Dihedral angle
| 12> { D 0  15  12  16  135.0   C } # D for Dihedral angle
| 13> { D 0  4  3  2   C } # D for Dihedral angle
| 14> { D 4  3  2  1   C } # D for Dihedral angle
| 15> { D 3  2  1  0   C } # D for Dihedral angle
| 16> { D 2  1  0  4   C } # D for Dihedral angle
| 17> { D 1  0  4  3   C } # D for Dihedral angle
| 18> { D 16  20  19  18   C } # D for Dihedral angle
| 19> { D 20  19  18  17   C } # D for Dihedral angle
| 20> { D 19  18  17  16   C } # D for Dihedral angle
| 21> { D 18  17  16  20   C } # D for Dihedral angle
| 22> { D 17  16  20  19   C } # D for Dihedral angle
| 23> { D 15  12  16  20   C } # D for Dihedral angle
| 24> end
| 25> end
| 26>
| 27>
| 28> #%pal
| 29> #nprocs 8
| 30> #end
| 31>
| 32> * xyz 0 1
| 33> C  -21.048   26.222   46.251
| 34> C  -20.361   27.558   45.944
| 35> C  -20.329   28.222   47.341
| 36> C  -20.110   27.022   48.296
| 37> O  -20.473   25.807   47.535
| 38> H  -20.833   25.428   45.533
| 39> H  -19.344   27.382   45.576
| 40> H  -20.898   28.157   45.201
| 41> H  -19.543   28.978   47.434
| 42> H  -21.289   28.710   47.548
| 43> H  -20.733   27.082   49.195
| 44> H  -19.064   26.913   48.597
| 45> C  -23.415   25.773   45.218
| 46> H  -23.771   26.573   44.557
| 47> H  -22.795   25.089   44.624
| 48> O  -22.586   26.394   46.375
| 49> C  -24.648   24.973   45.724
| 50> C  -25.658   25.890   46.423
| 51> C  -26.380   26.538   45.217
| 52> C  -26.412   25.395   44.172
| 53> O  -25.393   24.410   44.593
| 54> H  -24.304   24.133   46.331
| 55> O  -26.650   25.045   47.267
| 56> H  -25.186   26.627   47.082
| 57> H  -27.380   26.903   45.468
| 58> H  -25.797   27.388   44.843
| 59> H  -26.177   25.744   43.161
| 60> H  -27.374   24.875   44.152
| 61> H  -27.136   24.298   46.627
| 62> *
| 63>
| 64>                          ****END OF INPUT****
 Total Charge           Charge          ....    0
 Multiplicity           Mult            ....    1
 Number of Electrons    NEL             ....  102
FINAL SINGLE POINT ENERGY      -652.836540484031
FINAL SINGLE POINT ENERGY      -652.859102651774
FINAL SINGLE POINT ENERGY      -652.862584660581
FINAL SINGLE POINT ENERGY      -652.863197181192
FINAL SINGLE POINT ENERGY      -652.863275296811
FINAL SINGLE POINT ENERGY      -652.863286123674
FINAL SINGLE POINT ENERGY      -652.863288102626
                    ***********************HURRAY********************

CARTESIAN COORDINATES (ANGSTROEM)
---------------------------------
  C    -21.105041   26.161965   46.175497
  C    -20.416709   27.504012   45.933509
  C    -20.523117   28.174138   47.324428
  C    -20.374612   26.981431   48.293491
  O    -20.653237   25.767872   47.481338
  H    -20.836084   25.360488   45.479891
  H    -19.368108   27.332816   45.661989
  H    -20.895283   28.082131   45.138954
  H    -19.758325   28.939965   47.483588
  H    -21.507817   28.638459   47.433653
  H    -21.080354   27.011714   49.127216
  H    -19.357623   26.871307   48.681411
  C    -23.318610   25.766015   45.097050
  H    -23.623902   26.564296   44.407434
  H    -22.722908   25.038271   44.529882
  O    -22.548321   26.331087   46.192979
  C    -24.533206   25.050793   45.689034
  C    -25.514183   25.958466   46.444155
  C    -26.319088   26.586944   45.278413
  C    -26.398558   25.437945   44.242271
  O    -25.335656   24.466849   44.607835
  H    -24.192161   24.228656   46.324177
  O    -26.369844   25.177342   47.324162
  H    -25.014217   26.686072   47.081081
  H    -27.301371   26.917565   45.622744
  H    -25.787135   27.454119   44.872388
  H    -26.231843   25.776705   43.215069
  H    -27.351675   24.901526   44.282205
  H    -26.648014   24.360051   46.859155

 Multiplicity           Mult            ....    1
 Number of Electrons    NEL             ....  102
 Basis Dimension        Dim             ....  149

ORBITAL ENERGIES
----------------

  NO   OCC          E(Eh)            E(eV)
   0   2.0000     -19.144979      -520.9614
   1   2.0000     -19.144347      -520.9442
   2   2.0000     -19.140263      -520.8330
   3   2.0000     -19.132863      -520.6317
   4   2.0000     -10.282527      -279.8018
   5   2.0000     -10.234674      -278.4997
   6   2.0000     -10.233784      -278.4754
   7   2.0000     -10.231211      -278.4054
   8   2.0000     -10.231000      -278.3997
   9   2.0000     -10.224942      -278.2348
  10   2.0000     -10.186978      -277.2018
  11   2.0000     -10.186646      -277.1927
  12   2.0000     -10.186028      -277.1759
  13   2.0000      -1.054437       -28.6927
  14   2.0000      -1.034538       -28.1512
  15   2.0000      -1.002449       -27.2780
  16   2.0000      -0.996995       -27.1296
  17   2.0000      -0.789003       -21.4699
  18   2.0000      -0.778008       -21.1707
  19   2.0000      -0.767153       -20.8753
  20   2.0000      -0.730448       -19.8765
  21   2.0000      -0.675218       -18.3736
  22   2.0000      -0.602871       -16.4050
  23   2.0000      -0.600494       -16.3403
  24   2.0000      -0.592832       -16.1318
  25   2.0000      -0.581957       -15.8359
  26   2.0000      -0.521702       -14.1962
  27   2.0000      -0.519149       -14.1268
  28   2.0000      -0.497329       -13.5330
  29   2.0000      -0.488350       -13.2887
  30   2.0000      -0.469224       -12.7682
  31   2.0000      -0.455969       -12.4075
  32   2.0000      -0.451277       -12.2799
  33   2.0000      -0.443261       -12.0617
  34   2.0000      -0.425906       -11.5895
  35   2.0000      -0.413545       -11.2531
  36   2.0000      -0.399613       -10.8740
  37   2.0000      -0.390939       -10.6380
  38   2.0000      -0.374127       -10.1805
  39   2.0000      -0.365795        -9.9538
  40   2.0000      -0.359576        -9.7846
  41   2.0000      -0.354432        -9.6446
  42   2.0000      -0.353531        -9.6201
  43   2.0000      -0.330871        -9.0035
  44   2.0000      -0.315730        -8.5915
  45   2.0000      -0.313192        -8.5224
  46   2.0000      -0.301265        -8.1978
  47   2.0000      -0.276118        -7.5136
  48   2.0000      -0.262509        -7.1432
  49   2.0000      -0.252782        -6.8785
  50   2.0000      -0.242492        -6.5985
  51   0.0000       0.065077         1.7708
  52   0.0000       0.073846         2.0095
  53   0.0000       0.097049         2.6408
  54   0.0000       0.097666         2.6576
  55   0.0000       0.105480         2.8703

MULLIKEN ATOMIC CHARGES
-----------------------
   0 C :    0.291672
   1 C :   -0.256200
   2 C :   -0.300667
   3 C :   -0.002975
   4 O :   -0.500533
   5 H :    0.141081
   6 H :    0.144061
   7 H :    0.143396
   8 H :    0.142320
   9 H :    0.161306
  10 H :    0.155795
  11 H :    0.142033
  12 C :   -0.012743
  13 H :    0.132093
  14 H :    0.143586
  15 O :   -0.523436
  16 C :    0.059997
  17 C :    0.096210
  18 C :   -0.299031
  19 C :   -0.029895
  20 O :   -0.527610
  21 H :    0.169953
  22 O :   -0.604481
  23 H :    0.174954
  24 H :    0.161248
  25 H :    0.144017
  26 H :    0.144118
  27 H :    0.146547
  28 H :    0.363184
Sum of atomic charges:    0.0000000

LOEWDIN ATOMIC CHARGES
----------------------
   0 C :    0.179112
   1 C :   -0.224586
   2 C :   -0.216813
   3 C :   -0.026089
   4 O :   -0.309938
   5 H :    0.098276
   6 H :    0.113284
   7 H :    0.116098
   8 H :    0.114454
   9 H :    0.118635
  10 H :    0.109899
  11 H :    0.102589
  12 C :   -0.037345
  13 H :    0.094048
  14 H :    0.104737
  15 O :   -0.337250
  16 C :    0.013681
  17 C :    0.039699
  18 C :   -0.241655
  19 C :   -0.038066
  20 O :   -0.332586
  21 H :    0.120759
  22 O :   -0.415210
  23 H :    0.127438
  24 H :    0.126703
  25 H :    0.112972
  26 H :    0.102787
  27 H :    0.102629
  28 H :    0.281738

  Mayer bond orders larger than 0.100000
B(  0-C ,  1-C ) :   0.9373 B(  0-C ,  4-O ) :   0.9389 B(  0-C ,  5-H ) :   0.9176
B(  0-C , 15-O ) :   0.8309 B(  1-C ,  2-C ) :   0.9562 B(  1-C ,  6-H ) :   0.9351
B(  1-C ,  7-H ) :   0.9393 B(  2-C ,  3-C ) :   0.9544 B(  2-C ,  8-H ) :   0.9451
B(  2-C ,  9-H ) :   0.9439 B(  3-C ,  4-O ) :   0.8356 B(  3-C , 10-H ) :   0.9342
B(  3-C , 11-H ) :   0.9397 B( 12-C , 13-H ) :   0.9260 B( 12-C , 14-H ) :   0.9161
B( 12-C , 15-O ) :   0.8320 B( 12-C , 16-C ) :   0.8965 B( 16-C , 17-C ) :   0.9158
B( 16-C , 20-O ) :   0.8396 B( 16-C , 21-H ) :   0.9247 B( 17-C , 18-C ) :   0.9114
B( 17-C , 22-O ) :   0.8904 B( 17-C , 23-H ) :   0.9247 B( 18-C , 19-C ) :   0.9406
B( 18-C , 24-H ) :   0.9381 B( 18-C , 25-H ) :   0.9350 B( 19-C , 20-O ) :   0.8445
B( 19-C , 26-H ) :   0.9361 B( 19-C , 27-H ) :   0.9381 B( 22-O , 28-H ) :   0.7952

FINAL SINGLE POINT ENERGY      -652.863288282681

DIPOLE MOMENT
-------------
                                X             Y             Z
Electronic contribution:     -1.60894      -5.29618       1.37849
Nuclear contribution   :      1.97353       6.37523      -2.32117
                        -----------------------------------------
Total Dipole Moment    :      0.36458       1.07905      -0.94268
                        -----------------------------------------
Magnitude (a.u.)       :      1.47848
Magnitude (Debye)      :      3.75800

Rotational constants in cm-1:     0.057506     0.011934     0.011389
Rotational constants in MHz :  1723.974362   357.762545   341.444145

                             ****ORCA TERMINATED NORMALLY****
TOTAL RUN TIME: 0 days 0 hours 29 minutes 2 seconds 70 msec
