                         Program Version 4.2.1 -  RELEASE  -
|  1> # Test redundant internal optimization
|  2> #
|  3> ! RKS B3LYP  Opt TightSCF SmallPrint
|  4>
|  5> %basis
|  6>         Basis "6-31G"
|  7> end
|  8>
|  9> %geom
| 10> Constraints
| 11> { D 4  0  19  14  240.0   C } # D for Dihedral angle
| 12> { D 0  19  14  12  285.0   C } # D for Dihedral angle
| 13> { D 0  4  3  2   C } # D for Dihedral angle
| 14> { D 4  3  2  1   C } # D for Dihedral angle
| 15> { D 3  2  1  0   C } # D for Dihedral angle
| 16> { D 2  1  0  4   C } # D for Dihedral angle
| 17> { D 1  0  4  3   C } # D for Dihedral angle
| 18> { D 14  15  16  17   C } # D for Dihedral angle
| 19> { D 15  16  17  12   C } # D for Dihedral angle
| 20> { D 16  17  12  14   C } # D for Dihedral angle
| 21> { D 17  12  14  15   C } # D for Dihedral angle
| 22> { D 12  14  15  16   C } # D for Dihedral angle
| 23> end
| 24> end
| 25>
| 26>
| 27> #%pal
| 28> #nprocs 8
| 29> #end
| 30>
| 31> * xyz 0 1
| 32> C  -21.048   26.222   46.251
| 33> C  -20.361   27.558   45.944
| 34> C  -20.329   28.222   47.341
| 35> C  -20.110   27.022   48.296
| 36> O  -20.473   25.807   47.535
| 37> H  -20.833   25.428   45.533
| 38> H  -19.344   27.382   45.576
| 39> H  -20.898   28.157   45.201
| 40> H  -19.543   28.978   47.434
| 41> H  -21.289   28.710   47.548
| 42> H  -20.733   27.082   49.195
| 43> H  -19.064   26.913   48.597
| 44> C  -23.169   26.055   44.057
| 45> H  -23.959   25.610   43.431
| 46> C  -23.235   25.530   45.496
| 47> C  -22.561   24.145   45.357
| 48> C  -21.471   24.390   44.284
| 49> O  -21.845   25.638   43.581
| 50> H  -23.212   27.141   43.969
| 51> O  -22.472   26.381   46.366
| 52> H  -24.258   25.468   45.883
| 53> H  -22.144   23.779   46.300
| 54> H  -23.290   23.405   45.004
| 55> H  -21.406   23.574   43.556
| 56> H  -20.481   24.553   44.723
| 57> *
| 58>
| 59>                          ****END OF INPUT****
 Total Charge           Charge          ....    0
 Multiplicity           Mult            ....    1
 Number of Electrons    NEL             ....   86
FINAL SINGLE POINT ENERGY      -538.396249425711
FINAL SINGLE POINT ENERGY      -538.426907304623
FINAL SINGLE POINT ENERGY      -538.429545882867
FINAL SINGLE POINT ENERGY      -538.430037045489
FINAL SINGLE POINT ENERGY      -538.430120479303
FINAL SINGLE POINT ENERGY      -538.430145764130
FINAL SINGLE POINT ENERGY      -538.430142076610
FINAL SINGLE POINT ENERGY      -538.430141515912
                    ***********************HURRAY********************

CARTESIAN COORDINATES (ANGSTROEM)
---------------------------------
  C    -20.771669   26.314707   46.260295
  C    -20.257007   27.741212   46.066403
  C    -20.424288   28.337168   47.485314
  C    -20.115104   27.132842   48.402556
  O    -20.252676   25.927062   47.549654
  H    -20.408613   25.593195   45.533408
  H    -19.199393   27.710316   45.778781
  H    -20.815464   28.280600   45.299024
  H    -19.756577   29.183959   47.668545
  H    -21.456948   28.670578   47.623890
  H    -20.805995   27.047370   49.245422
  H    -19.086789   27.137207   48.777140
  C    -23.127335   25.996959   44.004194
  H    -24.068670   25.674887   43.536224
  C    -23.058467   25.522355   45.459172
  C    -22.654835   24.044915   45.283212
  C    -21.715985   24.066431   44.051128
  O    -21.978995   25.350999   43.348954
  H    -23.010719   27.076365   43.894652
  O    -22.223146   26.352030   46.311385
  H    -24.036745   25.603769   45.942774
  H    -22.174854   23.647226   46.181801
  H    -23.553968   23.453056   45.082323
  H    -21.918642   23.243716   43.356231
  H    -20.655116   24.041072   44.315518

 Multiplicity           Mult            ....    1
 Number of Electrons    NEL             ....   86
 Basis Dimension        Dim             ....  127

ORBITAL ENERGIES
----------------

  NO   OCC          E(Eh)            E(eV)
   0   2.0000     -19.137548      -520.7591
   1   2.0000     -19.137377      -520.7545
   2   2.0000     -19.133058      -520.6370
   3   2.0000     -10.273349      -279.5520
   4   2.0000     -10.242053      -278.7004
   5   2.0000     -10.228302      -278.3263
   6   2.0000     -10.224336      -278.2183
   7   2.0000     -10.219635      -278.0904
   8   2.0000     -10.190143      -277.2879
   9   2.0000     -10.179822      -277.0070
  10   2.0000     -10.178504      -276.9712
  11   2.0000      -1.047742       -28.5105
  12   2.0000      -1.016420       -27.6582
  13   2.0000      -0.986882       -26.8544
  14   2.0000      -0.789190       -21.4750
  15   2.0000      -0.774505       -21.0754
  16   2.0000      -0.745884       -20.2965
  17   2.0000      -0.719175       -19.5697
  18   2.0000      -0.616082       -16.7644
  19   2.0000      -0.605242       -16.4695
  20   2.0000      -0.592286       -16.1169
  21   2.0000      -0.567207       -15.4345
  22   2.0000      -0.523340       -14.2408
  23   2.0000      -0.503118       -13.6905
  24   2.0000      -0.480107       -13.0644
  25   2.0000      -0.476209       -12.9583
  26   2.0000      -0.451723       -12.2920
  27   2.0000      -0.442045       -12.0287
  28   2.0000      -0.426616       -11.6088
  29   2.0000      -0.413991       -11.2653
  30   2.0000      -0.403853       -10.9894
  31   2.0000      -0.395753       -10.7690
  32   2.0000      -0.373417       -10.1612
  33   2.0000      -0.367698       -10.0056
  34   2.0000      -0.355897        -9.6845
  35   2.0000      -0.350722        -9.5436
  36   2.0000      -0.343367        -9.3435
  37   2.0000      -0.316267        -8.6061
  38   2.0000      -0.310045        -8.4368
  39   2.0000      -0.292370        -7.9558
  40   2.0000      -0.264003        -7.1839
  41   2.0000      -0.250171        -6.8075
  42   2.0000      -0.235411        -6.4059
  43   0.0000       0.073432         1.9982
  44   0.0000       0.094678         2.5763
  45   0.0000       0.100922         2.7462
  46   0.0000       0.105691         2.8760
  47   0.0000       0.111602         3.0368

MULLIKEN ATOMIC CHARGES
-----------------------
   0 C :    0.277250
   1 C :   -0.248481
   2 C :   -0.297978
   3 C :   -0.000688
   4 O :   -0.508769
   5 H :    0.157395
   6 H :    0.141692
   7 H :    0.149379
   8 H :    0.137592
   9 H :    0.160385
  10 H :    0.148648
  11 H :    0.138877
  12 C :   -0.014155
  13 H :    0.127712
  14 C :    0.089579
  15 C :   -0.314031
  16 C :   -0.027598
  17 O :   -0.526310
  18 H :    0.162338
  19 O :   -0.525077
  20 H :    0.148634
  21 H :    0.175190
  22 H :    0.152129
  23 H :    0.142650
  24 H :    0.153636
Sum of atomic charges:   -0.0000000

LOEWDIN ATOMIC CHARGES
----------------------
   0 C :    0.173442
   1 C :   -0.216024
   2 C :   -0.216854
   3 C :   -0.026840
   4 O :   -0.321330
   5 H :    0.107725
   6 H :    0.111993
   7 H :    0.118910
   8 H :    0.112233
   9 H :    0.118342
  10 H :    0.105939
  11 H :    0.100614
  12 C :   -0.050137
  13 H :    0.094655
  14 C :    0.043721
  15 C :   -0.239766
  16 C :   -0.040271
  17 O :   -0.339697
  18 H :    0.117767
  19 O :   -0.325040
  20 H :    0.113297
  21 H :    0.132686
  22 H :    0.120935
  23 H :    0.101900
  24 H :    0.101800

  Mayer bond orders larger than 0.100000
B(  0-C ,  1-C ) :   0.9434 B(  0-C ,  4-O ) :   0.9190 B(  0-C ,  5-H ) :   0.9051
B(  0-C , 19-O ) :   0.8299 B(  1-C ,  2-C ) :   0.9562 B(  1-C ,  6-H ) :   0.9385
B(  1-C ,  7-H ) :   0.9384 B(  2-C ,  3-C ) :   0.9539 B(  2-C ,  8-H ) :   0.9458
B(  2-C ,  9-H ) :   0.9439 B(  3-C ,  4-O ) :   0.8388 B(  3-C , 10-H ) :   0.9354
B(  3-C , 11-H ) :   0.9401 B( 12-C , 13-H ) :   0.9139 B( 12-C , 14-C ) :   0.9107
B( 12-C , 17-O ) :   0.8580 B( 12-C , 18-H ) :   0.9324 B( 14-C , 15-C ) :   0.9293
B( 14-C , 19-O ) :   0.8831 B( 14-C , 20-H ) :   0.9368 B( 15-C , 16-C ) :   0.9442
B( 15-C , 21-H ) :   0.9322 B( 15-C , 22-H ) :   0.9373 B( 16-C , 17-O ) :   0.8527
B( 16-C , 23-H ) :   0.9342 B( 16-C , 24-H ) :   0.9250

FINAL SINGLE POINT ENERGY      -538.430142451156

DIPOLE MOMENT
-------------
                                X             Y             Z
Electronic contribution:     -0.43377      -1.25838      -0.41049
Nuclear contribution   :      0.10921       1.34903       0.52252
                        -----------------------------------------
Total Dipole Moment    :     -0.32457       0.09065       0.11203
                        -----------------------------------------
Magnitude (a.u.)       :      0.35512
Magnitude (Debye)      :      0.90265

Rotational constants in cm-1:     0.078666     0.022385     0.021199
Rotational constants in MHz :  2358.355432   671.099342   635.542596

                             ****ORCA TERMINATED NORMALLY****
TOTAL RUN TIME: 0 days 0 hours 9 minutes 5 seconds 955 msec
