                         Program Version 4.2.0 -  RELEASE  -
|  1> # Test redundant internal optimization
|  2> #
|  3> ! RKS B3LYP  Opt TightSCF SmallPrint
|  4>
|  5> %basis
|  6>         Basis "6-31G"
|  7> end
|  8>
|  9> %geom
| 10> Constraints
| 11> { D 4  0  15  12  345.0   C } # D for Dihedral angle
| 12> { D 0  15  12  16  270.0   C } # D for Dihedral angle
| 13> { D 0  4  3  2   C } # D for Dihedral angle
| 14> { D 4  3  2  1   C } # D for Dihedral angle
| 15> { D 3  2  1  0   C } # D for Dihedral angle
| 16> { D 2  1  0  4   C } # D for Dihedral angle
| 17> { D 1  0  4  3   C } # D for Dihedral angle
| 18> { D 16  20  19  18   C } # D for Dihedral angle
| 19> { D 20  19  18  17   C } # D for Dihedral angle
| 20> { D 19  18  17  16   C } # D for Dihedral angle
| 21> { D 18  17  16  20   C } # D for Dihedral angle
| 22> { D 17  16  20  19   C } # D for Dihedral angle
| 23> { D 15  12  16  20   C } # D for Dihedral angle
| 24> end
| 25> end
| 26>
| 27>
| 28> #%pal
| 29> #nprocs 8
| 30> #end
| 31>
| 32> * xyz 0 1
| 33> C  -21.048   26.222   46.251
| 34> C  -20.361   27.558   45.944
| 35> C  -20.329   28.222   47.341
| 36> C  -20.110   27.022   48.296
| 37> O  -20.473   25.807   47.535
| 38> H  -20.833   25.428   45.533
| 39> H  -19.344   27.382   45.576
| 40> H  -20.898   28.157   45.201
| 41> H  -19.543   28.978   47.434
| 42> H  -21.289   28.710   47.548
| 43> H  -20.733   27.082   49.195
| 44> H  -19.064   26.913   48.597
| 45> C  -23.221   25.764   47.645
| 46> H  -22.492   25.790   48.465
| 47> H  -24.106   26.335   47.955
| 48> O  -22.586   26.394   46.375
| 49> C  -23.661   24.290   47.429
| 50> C  -24.386   23.739   48.661
| 51> C  -25.798   24.347   48.493
| 52> C  -26.001   24.344   46.957
| 53> O  -24.658   24.205   46.356
| 54> H  -22.797   23.702   47.111
| 55> H  -24.428   22.645   48.616
| 56> O  -23.710   24.147   49.999
| 57> H  -26.572   23.776   49.017
| 58> H  -25.816   25.372   48.883
| 59> H  -26.463   25.269   46.593
| 60> H  -26.597   23.493   46.616
| 61> H  -23.657   25.239   50.069
| 62> *
| 63>
| 64>                          ****END OF INPUT****
 Total Charge           Charge          ....    0
 Multiplicity           Mult            ....    1
 Number of Electrons    NEL             ....  102
FINAL SINGLE POINT ENERGY      -652.827262873411
FINAL SINGLE POINT ENERGY      -652.850324356250
FINAL SINGLE POINT ENERGY      -652.854995212707
FINAL SINGLE POINT ENERGY      -652.855761596125
FINAL SINGLE POINT ENERGY      -652.855896134233
FINAL SINGLE POINT ENERGY      -652.855919074756
FINAL SINGLE POINT ENERGY      -652.855920410895
                    ***********************HURRAY********************

CARTESIAN COORDINATES (ANGSTROEM)
---------------------------------
  C    -21.075642   26.191878   46.321069
  C    -20.459035   27.540962   45.951896
  C    -20.321911   28.214189   47.336151
  C    -19.985496   27.033549   48.272995
  O    -20.389282   25.804012   47.532096
  H    -20.897917   25.388044   45.602273
  H    -19.477998   27.376043   45.491775
  H    -21.090201   28.102006   45.259790
  H    -19.549058   28.988874   47.353740
  H    -21.273964   28.675093   47.617827
  H    -20.525340   27.065378   49.223622
  H    -18.914590   26.935860   48.471542
  C    -23.169831   25.820833   47.657998
  H    -22.492679   25.850860   48.517708
  H    -24.018349   26.491322   47.828276
  O    -22.516851   26.356144   46.474295
  C    -23.641747   24.378308   47.457309
  C    -24.385922   23.798809   48.673094
  C    -25.828976   24.351769   48.461084
  C    -25.973579   24.333098   46.923399
  O    -24.601873   24.247982   46.364213
  H    -22.780179   23.764119   47.179437
  H    -24.384332   22.708138   48.613397
  O    -23.804811   24.089286   49.967451
  H    -26.582990   23.745692   48.969814
  H    -25.892416   25.373612   48.858810
  H    -26.464559   25.229121   46.529832
  H    -26.518344   23.451648   46.570459
  H    -23.956128   25.025370   50.209649

 Multiplicity           Mult            ....    1
 Number of Electrons    NEL             ....  102
 Basis Dimension        Dim             ....  149

ORBITAL ENERGIES
----------------

  NO   OCC          E(Eh)            E(eV)
   0   2.0000     -19.148902      -521.0681
   1   2.0000     -19.146863      -521.0126
   2   2.0000     -19.134301      -520.6708
   3   2.0000     -19.131837      -520.6038
   4   2.0000     -10.275531      -279.6114
   5   2.0000     -10.241381      -278.6822
   6   2.0000     -10.231459      -278.4121
   7   2.0000     -10.226648      -278.2812
   8   2.0000     -10.224329      -278.2181
   9   2.0000     -10.223537      -278.1966
  10   2.0000     -10.192580      -277.3542
  11   2.0000     -10.189092      -277.2593
  12   2.0000     -10.183642      -277.1110
  13   2.0000      -1.052717       -28.6459
  14   2.0000      -1.029879       -28.0244
  15   2.0000      -1.011380       -27.5210
  16   2.0000      -0.988288       -26.8927
  17   2.0000      -0.789950       -21.4956
  18   2.0000      -0.778405       -21.1815
  19   2.0000      -0.763423       -20.7738
  20   2.0000      -0.732526       -19.9330
  21   2.0000      -0.675980       -18.3944
  22   2.0000      -0.607771       -16.5383
  23   2.0000      -0.602293       -16.3892
  24   2.0000      -0.596801       -16.2398
  25   2.0000      -0.562560       -15.3080
  26   2.0000      -0.524617       -14.2756
  27   2.0000      -0.509871       -13.8743
  28   2.0000      -0.498355       -13.5609
  29   2.0000      -0.494175       -13.4472
  30   2.0000      -0.467622       -12.7246
  31   2.0000      -0.456570       -12.4239
  32   2.0000      -0.438711       -11.9379
  33   2.0000      -0.429840       -11.6965
  34   2.0000      -0.422615       -11.4999
  35   2.0000      -0.415873       -11.3165
  36   2.0000      -0.409200       -11.1349
  37   2.0000      -0.395962       -10.7747
  38   2.0000      -0.374146       -10.1810
  39   2.0000      -0.370842       -10.0911
  40   2.0000      -0.359275        -9.7764
  41   2.0000      -0.351850        -9.5743
  42   2.0000      -0.347920        -9.4674
  43   2.0000      -0.331477        -9.0199
  44   2.0000      -0.326536        -8.8855
  45   2.0000      -0.310937        -8.4610
  46   2.0000      -0.298378        -8.1193
  47   2.0000      -0.267783        -7.2867
  48   2.0000      -0.262597        -7.1456
  49   2.0000      -0.258870        -7.0442
  50   2.0000      -0.227786        -6.1984
  51   0.0000       0.052942         1.4406
  52   0.0000       0.077394         2.1060
  53   0.0000       0.087036         2.3684
  54   0.0000       0.093289         2.5385
  55   0.0000       0.105924         2.8823

MULLIKEN ATOMIC CHARGES
-----------------------
   0 C :    0.294708
   1 C :   -0.256731
   2 C :   -0.303431
   3 C :   -0.015809
   4 O :   -0.513258
   5 H :    0.158904
   6 H :    0.143693
   7 H :    0.163260
   8 H :    0.145899
   9 H :    0.154447
  10 H :    0.141166
  11 H :    0.151852
  12 C :   -0.027242
  13 H :    0.149211
  14 H :    0.134158
  15 O :   -0.522581
  16 C :    0.088074
  17 C :    0.078875
  18 C :   -0.320812
  19 C :   -0.009676
  20 O :   -0.505848
  21 H :    0.166486
  22 H :    0.170894
  23 O :   -0.597927
  24 H :    0.156666
  25 H :    0.129308
  26 H :    0.144503
  27 H :    0.147896
  28 H :    0.353316
Sum of atomic charges:   -0.0000000

LOEWDIN ATOMIC CHARGES
----------------------
   0 C :    0.180182
   1 C :   -0.216955
   2 C :   -0.218838
   3 C :   -0.031760
   4 O :   -0.321377
   5 H :    0.103807
   6 H :    0.113261
   7 H :    0.127249
   8 H :    0.116442
   9 H :    0.114906
  10 H :    0.100330
  11 H :    0.107496
  12 C :   -0.054067
  13 H :    0.107582
  14 H :    0.102025
  15 O :   -0.327724
  16 C :    0.011302
  17 C :    0.033244
  18 C :   -0.241445
  19 C :   -0.030354
  20 O :   -0.316086
  21 H :    0.119196
  22 H :    0.120330
  23 O :   -0.406864
  24 H :    0.122249
  25 H :    0.102167
  26 H :    0.102924
  27 H :    0.104978
  28 H :    0.275800

  Mayer bond orders larger than 0.100000
B(  0-C ,  1-C ) :   0.9378 B(  0-C ,  4-O ) :   0.9019 B(  0-C ,  5-H ) :   0.9246
B(  0-C , 15-O ) :   0.8471 B(  1-C ,  2-C ) :   0.9532 B(  1-C ,  6-H ) :   0.9366
B(  1-C ,  7-H ) :   0.9354 B(  2-C ,  3-C ) :   0.9536 B(  2-C ,  8-H ) :   0.9449
B(  2-C ,  9-H ) :   0.9456 B(  3-C ,  4-O ) :   0.8311 B(  3-C , 10-H ) :   0.9330
B(  3-C , 11-H ) :   0.9408 B( 12-C , 13-H ) :   0.8947 B( 12-C , 14-H ) :   0.9378
B( 12-C , 15-O ) :   0.8615 B( 12-C , 16-C ) :   0.8878 B( 16-C , 17-C ) :   0.8722
B( 16-C , 20-O ) :   0.8677 B( 16-C , 21-H ) :   0.9301 B( 17-C , 18-C ) :   0.9237
B( 17-C , 22-H ) :   0.9315 B( 17-C , 23-O ) :   0.8968 B( 18-C , 19-C ) :   0.9373
B( 18-C , 24-H ) :   0.9419 B( 18-C , 25-H ) :   0.9424 B( 19-C , 20-O ) :   0.8517
B( 19-C , 26-H ) :   0.9317 B( 19-C , 27-H ) :   0.9378 B( 23-O , 28-H ) :   0.7990

FINAL SINGLE POINT ENERGY      -652.855920227451

DIPOLE MOMENT
-------------
                                X             Y             Z
Electronic contribution:     -0.00560      -4.01686      -1.38584
Nuclear contribution   :     -0.21762       5.11367       1.97034
                        -----------------------------------------
Total Dipole Moment    :     -0.22323       1.09682       0.58450
                        -----------------------------------------
Magnitude (a.u.)       :      1.26272
Magnitude (Debye)      :      3.20959

Rotational constants in cm-1:     0.054092     0.013941     0.012271
Rotational constants in MHz :  1621.648935   417.935902   367.867555

                             ****ORCA TERMINATED NORMALLY****
TOTAL RUN TIME: 0 days 0 hours 17 minutes 19 seconds 160 msec
