                         Program Version 4.2.0 -  RELEASE  -
|  1> # Test redundant internal optimization
|  2> #
|  3> ! RKS B3LYP  Opt TightSCF SmallPrint
|  4>
|  5> %basis
|  6>         Basis "6-31G"
|  7> end
|  8>
|  9> %geom
| 10> Constraints
| 11> { D 4  0  15  12  330.0   C } # D for Dihedral angle
| 12> { D 0  15  12  16  225.0   C } # D for Dihedral angle
| 13> { D 0  4  3  2   C } # D for Dihedral angle
| 14> { D 4  3  2  1   C } # D for Dihedral angle
| 15> { D 3  2  1  0   C } # D for Dihedral angle
| 16> { D 2  1  0  4   C } # D for Dihedral angle
| 17> { D 1  0  4  3   C } # D for Dihedral angle
| 18> { D 16  20  19  18   C } # D for Dihedral angle
| 19> { D 20  19  18  17   C } # D for Dihedral angle
| 20> { D 19  18  17  16   C } # D for Dihedral angle
| 21> { D 18  17  16  20   C } # D for Dihedral angle
| 22> { D 17  16  20  19   C } # D for Dihedral angle
| 23> { D 15  12  16  20   C } # D for Dihedral angle
| 24> end
| 25> end
| 26>
| 27>
| 28> #%pal
| 29> #nprocs 8
| 30> #end
| 31>
| 32> * xyz 0 1
| 33> C  -21.048   26.222   46.251
| 34> C  -20.361   27.558   45.944
| 35> C  -20.329   28.222   47.341
| 36> C  -20.110   27.022   48.296
| 37> O  -20.473   25.807   47.535
| 38> H  -20.833   25.428   45.533
| 39> H  -19.344   27.382   45.576
| 40> H  -20.898   28.157   45.201
| 41> H  -19.543   28.978   47.434
| 42> H  -21.289   28.710   47.548
| 43> H  -20.733   27.082   49.195
| 44> H  -19.064   26.913   48.597
| 45> C  -23.271   25.476   47.424
| 46> H  -22.576   24.679   47.716
| 47> H  -23.533   26.048   48.323
| 48> O  -22.586   26.394   46.375
| 49> C  -24.571   24.816   46.887
| 50> C  -25.281   24.012   47.982
| 51> C  -25.993   25.129   48.781
| 52> C  -26.385   26.150   47.683
| 53> O  -25.547   25.843   46.505
| 54> H  -24.338   24.246   45.986
| 55> H  -26.012   23.330   47.535
| 56> O  -24.304   23.177   48.855
| 57> H  -26.860   24.764   49.340
| 58> H  -25.298   25.581   49.498
| 59> H  -26.205   27.186   47.991
| 60> H  -27.429   26.049   47.372
| 61> H  -23.562   23.839   49.315
| 62> *
| 63>
| 64>                          ****END OF INPUT****
 Total Charge           Charge          ....    0
 Multiplicity           Mult            ....    1
 Number of Electrons    NEL             ....  102
FINAL SINGLE POINT ENERGY      -652.829310567750
FINAL SINGLE POINT ENERGY      -652.852595975775
FINAL SINGLE POINT ENERGY      -652.856902437054
FINAL SINGLE POINT ENERGY      -652.857615350341
FINAL SINGLE POINT ENERGY      -652.857737815214
FINAL SINGLE POINT ENERGY      -652.857764991986
FINAL SINGLE POINT ENERGY      -652.857768376099
                    ***********************HURRAY********************

CARTESIAN COORDINATES (ANGSTROEM)
---------------------------------
  C    -21.088541   26.171351   46.307338
  C    -20.512870   27.538678   45.940705
  C    -20.388786   28.207949   47.326202
  C    -20.014100   27.034981   48.257969
  O    -20.384728   25.795971   47.515988
  H    -20.895636   25.366060   45.592189
  H    -19.530881   27.404226   45.472848
  H    -21.165466   28.084647   45.256403
  H    -19.639224   29.005300   47.343267
  H    -21.353904   28.636378   47.612565
  H    -20.552122   27.049799   49.209775
  H    -18.939867   26.968584   48.452905
  C    -23.155464   25.500893   47.514971
  H    -22.483486   24.695542   47.830406
  H    -23.362104   26.139643   48.384748
  O    -22.521649   26.322350   46.491841
  C    -24.441780   24.904870   46.949213
  C    -25.225857   24.049036   47.959244
  C    -26.027923   25.131489   48.743313
  C    -26.344128   26.175569   47.649979
  O    -25.403251   25.921846   46.530460
  H    -24.189131   24.344226   46.044484
  H    -25.907574   23.388560   47.419403
  O    -24.431918   23.156694   48.777087
  H    -26.924429   24.720435   49.214011
  H    -25.395143   25.555676   49.534495
  H    -26.218814   27.206756   47.995663
  H    -27.356421   26.061018   47.249586
  H    -23.920803   23.661473   49.441945

 Multiplicity           Mult            ....    1
 Number of Electrons    NEL             ....  102
 Basis Dimension        Dim             ....  149

ORBITAL ENERGIES
----------------

  NO   OCC          E(Eh)            E(eV)
   0   2.0000     -19.147372      -521.0265
   1   2.0000     -19.147004      -521.0165
   2   2.0000     -19.136159      -520.7214
   3   2.0000     -19.132345      -520.6176
   4   2.0000     -10.276586      -279.6401
   5   2.0000     -10.241934      -278.6972
   6   2.0000     -10.230326      -278.3813
   7   2.0000     -10.227200      -278.2962
   8   2.0000     -10.225906      -278.2611
   9   2.0000     -10.224076      -278.2112
  10   2.0000     -10.192629      -277.3555
  11   2.0000     -10.187159      -277.2067
  12   2.0000     -10.183528      -277.1079
  13   2.0000      -1.053101       -28.6563
  14   2.0000      -1.030509       -28.0416
  15   2.0000      -1.011989       -27.5376
  16   2.0000      -0.989169       -26.9167
  17   2.0000      -0.789961       -21.4959
  18   2.0000      -0.779064       -21.1994
  19   2.0000      -0.764689       -20.8082
  20   2.0000      -0.730968       -19.8907
  21   2.0000      -0.676431       -18.4066
  22   2.0000      -0.608272       -16.5519
  23   2.0000      -0.601548       -16.3690
  24   2.0000      -0.591741       -16.1021
  25   2.0000      -0.567988       -15.4557
  26   2.0000      -0.528094       -14.3702
  27   2.0000      -0.506436       -13.7808
  28   2.0000      -0.496749       -13.5172
  29   2.0000      -0.495250       -13.4764
  30   2.0000      -0.468985       -12.7617
  31   2.0000      -0.451663       -12.2904
  32   2.0000      -0.448063       -12.1924
  33   2.0000      -0.428027       -11.6472
  34   2.0000      -0.424146       -11.5416
  35   2.0000      -0.411418       -11.1953
  36   2.0000      -0.409323       -11.1382
  37   2.0000      -0.398935       -10.8556
  38   2.0000      -0.375187       -10.2094
  39   2.0000      -0.366396        -9.9701
  40   2.0000      -0.358514        -9.7557
  41   2.0000      -0.351398        -9.5620
  42   2.0000      -0.347586        -9.4583
  43   2.0000      -0.339179        -9.2295
  44   2.0000      -0.323598        -8.8055
  45   2.0000      -0.310831        -8.4581
  46   2.0000      -0.297782        -8.1030
  47   2.0000      -0.268246        -7.2993
  48   2.0000      -0.262665        -7.1475
  49   2.0000      -0.255033        -6.9398
  50   2.0000      -0.233719        -6.3598
  51   0.0000       0.052497         1.4285
  52   0.0000       0.075403         2.0518
  53   0.0000       0.089657         2.4397
  54   0.0000       0.096626         2.6293
  55   0.0000       0.106504         2.8981

MULLIKEN ATOMIC CHARGES
-----------------------
   0 C :    0.290181
   1 C :   -0.258412
   2 C :   -0.302235
   3 C :   -0.011647
   4 O :   -0.515113
   5 H :    0.150467
   6 H :    0.143187
   7 H :    0.167072
   8 H :    0.144041
   9 H :    0.160415
  10 H :    0.140021
  11 H :    0.148906
  12 C :   -0.015956
  13 H :    0.160574
  14 H :    0.118412
  15 O :   -0.521875
  16 C :    0.093974
  17 C :    0.082724
  18 C :   -0.319678
  19 C :   -0.008282
  20 O :   -0.505265
  21 H :    0.158051
  22 H :    0.166636
  23 O :   -0.598348
  24 H :    0.155121
  25 H :    0.131535
  26 H :    0.142599
  27 H :    0.147375
  28 H :    0.355520
Sum of atomic charges:   -0.0000000

LOEWDIN ATOMIC CHARGES
----------------------
   0 C :    0.177924
   1 C :   -0.215298
   2 C :   -0.217404
   3 C :   -0.030775
   4 O :   -0.326891
   5 H :    0.099269
   6 H :    0.113120
   7 H :    0.129314
   8 H :    0.115425
   9 H :    0.118235
  10 H :    0.101135
  11 H :    0.105828
  12 C :   -0.052800
  13 H :    0.114783
  14 H :    0.089948
  15 O :   -0.326716
  16 C :    0.017662
  17 C :    0.033838
  18 C :   -0.241336
  19 C :   -0.029958
  20 O :   -0.314712
  21 H :    0.117326
  22 H :    0.119282
  23 O :   -0.406426
  24 H :    0.121675
  25 H :    0.103037
  26 H :    0.102098
  27 H :    0.104788
  28 H :    0.277626

  Mayer bond orders larger than 0.100000
B(  0-C ,  1-C ) :   0.9445 B(  0-C ,  4-O ) :   0.8963 B(  0-C ,  5-H ) :   0.9226
B(  0-C , 15-O ) :   0.8587 B(  1-C ,  2-C ) :   0.9531 B(  1-C ,  6-H ) :   0.9378
B(  1-C ,  7-H ) :   0.9343 B(  2-C ,  3-C ) :   0.9562 B(  2-C ,  8-H ) :   0.9447
B(  2-C ,  9-H ) :   0.9447 B(  3-C ,  4-O ) :   0.8324 B(  3-C , 10-H ) :   0.9360
B(  3-C , 11-H ) :   0.9403 B( 12-C , 13-H ) :   0.8982 B( 12-C , 14-H ) :   0.9288
B( 12-C , 15-O ) :   0.8343 B( 12-C , 16-C ) :   0.9042 B( 16-C , 17-C ) :   0.8706
B( 16-C , 20-O ) :   0.8664 B( 16-C , 21-H ) :   0.9311 B( 17-C , 18-C ) :   0.9222
B( 17-C , 22-H ) :   0.9339 B( 17-C , 23-O ) :   0.8986 B( 18-C , 19-C ) :   0.9384
B( 18-C , 24-H ) :   0.9424 B( 18-C , 25-H ) :   0.9414 B( 19-C , 20-O ) :   0.8522
B( 19-C , 26-H ) :   0.9320 B( 19-C , 27-H ) :   0.9379 B( 23-O , 28-H ) :   0.7978

FINAL SINGLE POINT ENERGY      -652.857768923173

DIPOLE MOMENT
-------------
                                X             Y             Z
Electronic contribution:     -1.04152      -3.99912      -2.52474
Nuclear contribution   :      1.27220       4.82400       3.44712
                        -----------------------------------------
Total Dipole Moment    :      0.23068       0.82488       0.92238
                        -----------------------------------------
Magnitude (a.u.)       :      1.25874
Magnitude (Debye)      :      3.19946

Rotational constants in cm-1:     0.051612     0.013198     0.012056
Rotational constants in MHz :  1547.302500   395.678303   361.417063

                             ****ORCA TERMINATED NORMALLY****
TOTAL RUN TIME: 0 days 0 hours 25 minutes 4 seconds 699 msec
