                         Program Version 4.2.0 -  RELEASE  -
|  1> # Test redundant internal optimization
|  2> #
|  3> ! RKS B3LYP  Opt TightSCF SmallPrint
|  4>
|  5> %basis
|  6>         Basis "6-31G"
|  7> end
|  8>
|  9> %geom
| 10> Constraints
| 11> { D 4  0  15  12  210.0   C } # D for Dihedral angle
| 12> { D 0  15  12  16  195.0   C } # D for Dihedral angle
| 13> { D 0  4  3  2   C } # D for Dihedral angle
| 14> { D 4  3  2  1   C } # D for Dihedral angle
| 15> { D 3  2  1  0   C } # D for Dihedral angle
| 16> { D 2  1  0  4   C } # D for Dihedral angle
| 17> { D 1  0  4  3   C } # D for Dihedral angle
| 18> { D 16  20  19  18   C } # D for Dihedral angle
| 19> { D 20  19  18  17   C } # D for Dihedral angle
| 20> { D 19  18  17  16   C } # D for Dihedral angle
| 21> { D 18  17  16  20   C } # D for Dihedral angle
| 22> { D 17  16  20  19   C } # D for Dihedral angle
| 23> { D 15  12  16  20   C } # D for Dihedral angle
| 24> end
| 25> end
| 26>
| 27>
| 28> #%pal
| 29> #nprocs 8
| 30> #end
| 31>
| 32> * xyz 0 1
| 33> C  -21.048   26.222   46.251
| 34> C  -20.361   27.558   45.944
| 35> C  -20.329   28.222   47.341
| 36> C  -20.110   27.022   48.296
| 37> O  -20.473   25.807   47.535
| 38> H  -20.833   25.428   45.533
| 39> H  -19.344   27.382   45.576
| 40> H  -20.898   28.157   45.201
| 41> H  -19.543   28.978   47.434
| 42> H  -21.289   28.710   47.548
| 43> H  -20.733   27.082   49.195
| 44> H  -19.064   26.913   48.597
| 45> C  -23.389   26.110   45.076
| 46> H  -22.885   26.588   44.227
| 47> H  -23.438   25.031   44.883
| 48> O  -22.586   26.394   46.375
| 49> C  -24.847   26.645   45.142
| 50> C  -24.874   28.175   45.241
| 51> C  -24.625   28.589   43.771
| 52> C  -25.358   27.486   42.967
| 53> O  -25.557   26.351   43.893
| 54> H  -25.381   26.130   45.943
| 55> H  -25.862   28.512   45.576
| 56> O  -23.807   28.742   46.217
| 57> H  -25.000   29.591   43.543
| 58> H  -23.550   28.576   43.554
| 59> H  -24.781   27.145   42.101
| 60> H  -26.348   27.804   42.629
| 61> H  -22.810   28.417   45.901
| 62> *
| 63>
| 64>                          ****END OF INPUT****
 Total Charge           Charge          ....    0
 Multiplicity           Mult            ....    1
 Number of Electrons    NEL             ....  102
FINAL SINGLE POINT ENERGY      -652.825756185867
FINAL SINGLE POINT ENERGY      -652.851063163522
FINAL SINGLE POINT ENERGY      -652.857247390135
FINAL SINGLE POINT ENERGY      -652.860101634181
FINAL SINGLE POINT ENERGY      -652.861987434760
FINAL SINGLE POINT ENERGY      -652.863526531297
FINAL SINGLE POINT ENERGY      -652.864518280706
FINAL SINGLE POINT ENERGY      -652.865031279192
FINAL SINGLE POINT ENERGY      -652.865136793625
FINAL SINGLE POINT ENERGY      -652.865154652943
FINAL SINGLE POINT ENERGY      -652.865158542547
                    ***********************HURRAY********************

CARTESIAN COORDINATES (ANGSTROEM)
---------------------------------
  C    -21.104079   26.207028   46.208228
  C    -20.383086   27.510299   45.869894
  C    -20.394377   28.246635   47.232260
  C    -20.237867   27.096381   48.247703
  O    -20.602283   25.856384   47.501587
  H    -20.900749   25.366175   45.538910
  H    -19.359218   27.284592   45.551920
  H    -20.878021   28.082516   45.080043
  H    -19.585476   28.979451   47.310427
  H    -21.338756   28.781161   47.368632
  H    -20.898305   27.184640   49.113304
  H    -19.207272   26.961139   48.586301
  C    -23.287335   26.077522   45.049042
  H    -22.763993   26.504828   44.182860
  H    -23.348298   24.991054   44.922236
  O    -22.556282   26.395952   46.284724
  C    -24.695092   26.672045   45.162454
  C    -24.749831   28.205322   45.270564
  C    -24.565899   28.633414   43.786236
  C    -25.304035   27.523225   43.008651
  O    -25.443868   26.370219   43.945669
  H    -25.222211   26.185075   45.987769
  H    -25.749992   28.495308   45.614398
  O    -23.773139   28.797744   46.152059
  H    -24.973923   29.628972   43.593299
  H    -23.495134   28.658742   43.557639
  H    -24.766506   27.187571   42.116494
  H    -26.317982   27.813241   42.720486
  H    -23.219991   28.070365   46.526210

 Multiplicity           Mult            ....    1
 Number of Electrons    NEL             ....  102
 Basis Dimension        Dim             ....  149

ORBITAL ENERGIES
----------------

  NO   OCC          E(Eh)            E(eV)
   0   2.0000     -19.164238      -521.4854
   1   2.0000     -19.150523      -521.1122
   2   2.0000     -19.143753      -520.9280
   3   2.0000     -19.118013      -520.2276
   4   2.0000     -10.292121      -280.0629
   5   2.0000     -10.241829      -278.6943
   6   2.0000     -10.237862      -278.5864
   7   2.0000     -10.233997      -278.4812
   8   2.0000     -10.232098      -278.4295
   9   2.0000     -10.229725      -278.3650
  10   2.0000     -10.195262      -277.4272
  11   2.0000     -10.192559      -277.3536
  12   2.0000     -10.183642      -277.1110
  13   2.0000      -1.065898       -29.0046
  14   2.0000      -1.029675       -28.0189
  15   2.0000      -1.010224       -27.4896
  16   2.0000      -0.996230       -27.1088
  17   2.0000      -0.795130       -21.6366
  18   2.0000      -0.776034       -21.1170
  19   2.0000      -0.771090       -20.9824
  20   2.0000      -0.737483       -20.0679
  21   2.0000      -0.681606       -18.5474
  22   2.0000      -0.608261       -16.5516
  23   2.0000      -0.603485       -16.4217
  24   2.0000      -0.595637       -16.2081
  25   2.0000      -0.584291       -15.8994
  26   2.0000      -0.531245       -14.4559
  27   2.0000      -0.519185       -14.1277
  28   2.0000      -0.502764       -13.6809
  29   2.0000      -0.492634       -13.4053
  30   2.0000      -0.474729       -12.9180
  31   2.0000      -0.461342       -12.5537
  32   2.0000      -0.447687       -12.1822
  33   2.0000      -0.435633       -11.8542
  34   2.0000      -0.431760       -11.7488
  35   2.0000      -0.423066       -11.5122
  36   2.0000      -0.409100       -11.1322
  37   2.0000      -0.390687       -10.6311
  38   2.0000      -0.382796       -10.4164
  39   2.0000      -0.372501       -10.1363
  40   2.0000      -0.364324        -9.9138
  41   2.0000      -0.363533        -9.8922
  42   2.0000      -0.350688        -9.5427
  43   2.0000      -0.343224        -9.3396
  44   2.0000      -0.325865        -8.8672
  45   2.0000      -0.321806        -8.7568
  46   2.0000      -0.294259        -8.0072
  47   2.0000      -0.273505        -7.4425
  48   2.0000      -0.267538        -7.2801
  49   2.0000      -0.249840        -6.7985
  50   2.0000      -0.248347        -6.7579
  51   0.0000       0.053568         1.4577
  52   0.0000       0.069472         1.8904
  53   0.0000       0.093834         2.5533
  54   0.0000       0.095652         2.6028
  55   0.0000       0.100798         2.7429

MULLIKEN ATOMIC CHARGES
-----------------------
   0 C :    0.305489
   1 C :   -0.276146
   2 C :   -0.315040
   3 C :   -0.008342
   4 O :   -0.499826
   5 H :    0.148636
   6 H :    0.151582
   7 H :    0.153537
   8 H :    0.149491
   9 H :    0.174812
  10 H :    0.159067
  11 H :    0.147745
  12 C :   -0.015559
  13 H :    0.134261
  14 H :    0.166023
  15 O :   -0.545934
  16 C :    0.039377
  17 C :    0.127928
  18 C :   -0.300878
  19 C :   -0.019165
  20 O :   -0.520023
  21 H :    0.167598
  22 H :    0.143131
  23 O :   -0.658333
  24 H :    0.151141
  25 H :    0.143341
  26 H :    0.141381
  27 H :    0.150893
  28 H :    0.403813
Sum of atomic charges:   -0.0000000

LOEWDIN ATOMIC CHARGES
----------------------
   0 C :    0.180208
   1 C :   -0.229112
   2 C :   -0.219304
   3 C :   -0.026167
   4 O :   -0.302429
   5 H :    0.103284
   6 H :    0.117950
   7 H :    0.119088
   8 H :    0.118997
   9 H :    0.123744
  10 H :    0.111776
  11 H :    0.105883
  12 C :   -0.044557
  13 H :    0.094651
  14 H :    0.114202
  15 O :   -0.341891
  16 C :    0.018105
  17 C :    0.043842
  18 C :   -0.233629
  19 C :   -0.031829
  20 O :   -0.321780
  21 H :    0.118829
  22 H :    0.102760
  23 O :   -0.444137
  24 H :    0.121394
  25 H :    0.109214
  26 H :    0.101645
  27 H :    0.107029
  28 H :    0.282233

  Mayer bond orders larger than 0.100000
B(  0-C ,  1-C ) :   0.9366 B(  0-C ,  4-O ) :   0.9492 B(  0-C ,  5-H ) :   0.9211
B(  0-C , 15-O ) :   0.7909 B(  1-C ,  2-C ) :   0.9493 B(  1-C ,  6-H ) :   0.9336
B(  1-C ,  7-H ) :   0.9315 B(  2-C ,  3-C ) :   0.9510 B(  2-C ,  8-H ) :   0.9447
B(  2-C ,  9-H ) :   0.9347 B(  3-C ,  4-O ) :   0.8290 B(  3-C , 10-H ) :   0.9341
B(  3-C , 11-H ) :   0.9394 B( 12-C , 13-H ) :   0.9170 B( 12-C , 14-H ) :   0.9210
B( 12-C , 15-O ) :   0.7922 B( 12-C , 16-C ) :   0.9086 B( 15-O , 28-H ) :   0.1084
B( 16-C , 17-C ) :   0.9174 B( 16-C , 20-O ) :   0.8591 B( 16-C , 21-H ) :   0.9267
B( 17-C , 18-C ) :   0.9054 B( 17-C , 22-H ) :   0.9279 B( 17-C , 23-O ) :   0.9239
B( 18-C , 19-C ) :   0.9396 B( 18-C , 24-H ) :   0.9454 B( 18-C , 25-H ) :   0.9431
B( 19-C , 20-O ) :   0.8322 B( 19-C , 26-H ) :   0.9345 B( 19-C , 27-H ) :   0.9382
B( 23-O , 28-H ) :   0.6935

FINAL SINGLE POINT ENERGY      -652.865159064421

DIPOLE MOMENT
-------------
                                X             Y             Z
Electronic contribution:     -2.56273      -4.23670       2.19821
Nuclear contribution   :      3.40718       4.69343      -2.90411
                        -----------------------------------------
Total Dipole Moment    :      0.84445       0.45673      -0.70590
                        -----------------------------------------
Magnitude (a.u.)       :      1.19164
Magnitude (Debye)      :      3.02890

Rotational constants in cm-1:     0.058873     0.014334     0.013183
Rotational constants in MHz :  1764.974900   429.714104   395.208957

                             ****ORCA TERMINATED NORMALLY****
TOTAL RUN TIME: 0 days 0 hours 28 minutes 18 seconds 287 msec
