                         Program Version 4.2.0 -  RELEASE  -
|  1> # Test redundant internal optimization
|  2> #
|  3> ! RKS B3LYP  Opt TightSCF SmallPrint
|  4>
|  5> %basis
|  6>         Basis "6-31G"
|  7> end
|  8>
|  9> %geom
| 10> Constraints
| 11> { D 4  0  15  12  315.0   C } # D for Dihedral angle
| 12> { D 0  15  12  16  225.0   C } # D for Dihedral angle
| 13> { D 0  4  3  2   C } # D for Dihedral angle
| 14> { D 4  3  2  1   C } # D for Dihedral angle
| 15> { D 3  2  1  0   C } # D for Dihedral angle
| 16> { D 2  1  0  4   C } # D for Dihedral angle
| 17> { D 1  0  4  3   C } # D for Dihedral angle
| 18> { D 16  20  19  18   C } # D for Dihedral angle
| 19> { D 20  19  18  17   C } # D for Dihedral angle
| 20> { D 19  18  17  16   C } # D for Dihedral angle
| 21> { D 18  17  16  20   C } # D for Dihedral angle
| 22> { D 17  16  20  19   C } # D for Dihedral angle
| 23> { D 15  12  16  20   C } # D for Dihedral angle
| 24> end
| 25> end
| 26>
| 27>
| 28> #%pal
| 29> #nprocs 8
| 30> #end
| 31>
| 32> * xyz 0 1
| 33> C  -21.048   26.222   46.251
| 34> C  -20.361   27.558   45.944
| 35> C  -20.329   28.222   47.341
| 36> C  -20.110   27.022   48.296
| 37> O  -20.473   25.807   47.535
| 38> H  -20.833   25.428   45.533
| 39> H  -19.344   27.382   45.576
| 40> H  -20.898   28.157   45.201
| 41> H  -19.543   28.978   47.434
| 42> H  -21.289   28.710   47.548
| 43> H  -20.733   27.082   49.195
| 44> H  -19.064   26.913   48.597
| 45> C  -23.319   25.255   47.135
| 46> H  -22.647   24.393   47.231
| 47> H  -23.600   25.584   48.144
| 48> O  -22.586   26.394   46.375
| 49> C  -24.613   24.787   46.413
| 50> C  -25.370   23.746   47.246
| 51> C  -26.088   24.639   48.286
| 52> C  -26.428   25.916   47.478
| 53> O  -25.558   25.901   46.282
| 54> H  -24.361   24.460   45.402
| 55> H  -26.098   23.220   46.620
| 56> O  -24.435   22.692   47.901
| 57> H  -26.978   24.164   48.710
| 58> H  -25.408   24.875   49.113
| 59> H  -26.240   26.834   48.046
| 60> H  -27.463   25.923   47.124
| 61> H  -23.697   23.196   48.534
| 62> *
| 63>
| 64>                          ****END OF INPUT****
 Total Charge           Charge          ....    0
 Multiplicity           Mult            ....    1
 Number of Electrons    NEL             ....  102
FINAL SINGLE POINT ENERGY      -652.830653240908
FINAL SINGLE POINT ENERGY      -652.854738647952
FINAL SINGLE POINT ENERGY      -652.859176693605
FINAL SINGLE POINT ENERGY      -652.859949290116
FINAL SINGLE POINT ENERGY      -652.860076174569
FINAL SINGLE POINT ENERGY      -652.860096895590
FINAL SINGLE POINT ENERGY      -652.860099148026
                    ***********************HURRAY********************

CARTESIAN COORDINATES (ANGSTROEM)
---------------------------------
  C    -21.094068   26.160680   46.286127
  C    -20.513849   27.530961   45.937265
  C    -20.428761   28.197706   47.326733
  C    -20.074359   27.023496   48.265660
  O    -20.419799   25.785131   47.513963
  H    -20.882995   25.352798   45.577814
  H    -19.519484   27.399613   45.495845
  H    -21.148828   28.076678   45.236372
  H    -19.682609   28.997605   47.364974
  H    -21.403119   28.620193   47.588271
  H    -20.637007   27.036768   49.203006
  H    -19.005121   26.962591   48.488852
  C    -23.191377   25.272771   47.216873
  H    -22.539716   24.397719   47.325040
  H    -23.405822   25.667089   48.218631
  O    -22.521112   26.317993   46.452156
  C    -24.470723   24.865394   46.491142
  C    -25.288305   23.794869   47.234900
  C    -26.093523   24.657549   48.253317
  C    -26.370908   25.951343   47.456676
  O    -25.407942   25.973275   46.327354
  H    -24.203986   24.549285   45.478598
  H    -25.965904   23.304296   46.532602
  O    -24.521989   22.712253   47.814474
  H    -27.006487   24.158020   48.587270
  H    -25.472902   24.852942   49.137739
  H    -26.239059   26.857892   48.055989
  H    -27.374896   25.961473   47.021547
  H    -24.029351   23.021615   48.601811

 Multiplicity           Mult            ....    1
 Number of Electrons    NEL             ....  102
 Basis Dimension        Dim             ....  149

ORBITAL ENERGIES
----------------

  NO   OCC          E(Eh)            E(eV)
   0   2.0000     -19.147779      -521.0376
   1   2.0000     -19.142973      -520.9068
   2   2.0000     -19.138593      -520.7876
   3   2.0000     -19.133099      -520.6381
   4   2.0000     -10.275858      -279.6203
   5   2.0000     -10.242896      -278.7234
   6   2.0000     -10.227817      -278.3131
   7   2.0000     -10.227014      -278.2912
   8   2.0000     -10.226832      -278.2862
   9   2.0000     -10.225149      -278.2405
  10   2.0000     -10.193316      -277.3742
  11   2.0000     -10.184465      -277.1334
  12   2.0000     -10.182809      -277.0883
  13   2.0000      -1.052812       -28.6485
  14   2.0000      -1.031313       -28.0635
  15   2.0000      -1.012783       -27.5592
  16   2.0000      -0.989775       -26.9332
  17   2.0000      -0.788617       -21.4594
  18   2.0000      -0.779661       -21.2156
  19   2.0000      -0.764480       -20.8026
  20   2.0000      -0.729503       -19.8508
  21   2.0000      -0.676938       -18.4204
  22   2.0000      -0.609132       -16.5753
  23   2.0000      -0.599431       -16.3113
  24   2.0000      -0.590552       -16.0697
  25   2.0000      -0.569719       -15.5028
  26   2.0000      -0.529277       -14.4024
  27   2.0000      -0.507147       -13.8002
  28   2.0000      -0.495982       -13.4964
  29   2.0000      -0.492998       -13.4152
  30   2.0000      -0.468209       -12.7406
  31   2.0000      -0.449922       -12.2430
  32   2.0000      -0.448232       -12.1970
  33   2.0000      -0.429814       -11.6958
  34   2.0000      -0.425480       -11.5779
  35   2.0000      -0.410909       -11.1814
  36   2.0000      -0.407433       -11.0868
  37   2.0000      -0.400101       -10.8873
  38   2.0000      -0.375881       -10.2282
  39   2.0000      -0.364594        -9.9211
  40   2.0000      -0.356758        -9.7079
  41   2.0000      -0.352879        -9.6023
  42   2.0000      -0.345469        -9.4007
  43   2.0000      -0.338136        -9.2011
  44   2.0000      -0.322734        -8.7821
  45   2.0000      -0.311646        -8.4803
  46   2.0000      -0.296564        -8.0699
  47   2.0000      -0.269062        -7.3215
  48   2.0000      -0.263659        -7.1745
  49   2.0000      -0.255234        -6.9453
  50   2.0000      -0.235319        -6.4034
  51   0.0000       0.053801         1.4640
  52   0.0000       0.077023         2.0959
  53   0.0000       0.090634         2.4663
  54   0.0000       0.097280         2.6471
  55   0.0000       0.106474         2.8973

MULLIKEN ATOMIC CHARGES
-----------------------
   0 C :    0.282930
   1 C :   -0.260674
   2 C :   -0.300051
   3 C :   -0.008448
   4 O :   -0.516533
   5 H :    0.147029
   6 H :    0.143700
   7 H :    0.166047
   8 H :    0.141863
   9 H :    0.163437
  10 H :    0.141190
  11 H :    0.145652
  12 C :   -0.017024
  13 H :    0.153870
  14 H :    0.125426
  15 O :   -0.514033
  16 C :    0.099708
  17 C :    0.084015
  18 C :   -0.324386
  19 C :   -0.005919
  20 O :   -0.506553
  21 H :    0.154502
  22 H :    0.168047
  23 O :   -0.601133
  24 H :    0.156012
  25 H :    0.133947
  26 H :    0.142865
  27 H :    0.147092
  28 H :    0.357420
Sum of atomic charges:    0.0000000

LOEWDIN ATOMIC CHARGES
----------------------
   0 C :    0.173439
   1 C :   -0.214103
   2 C :   -0.216687
   3 C :   -0.029833
   4 O :   -0.332485
   5 H :    0.096722
   6 H :    0.113556
   7 H :    0.128834
   8 H :    0.114063
   9 H :    0.119805
  10 H :    0.101983
  11 H :    0.104054
  12 C :   -0.051563
  13 H :    0.111836
  14 H :    0.094156
  15 O :   -0.320315
  16 C :    0.018288
  17 C :    0.033967
  18 C :   -0.241858
  19 C :   -0.029214
  20 O :   -0.314806
  21 H :    0.116379
  22 H :    0.119572
  23 O :   -0.407410
  24 H :    0.121888
  25 H :    0.103957
  26 H :    0.102341
  27 H :    0.104857
  28 H :    0.278578

  Mayer bond orders larger than 0.100000
B(  0-C ,  1-C ) :   0.9495 B(  0-C ,  4-O ) :   0.8912 B(  0-C ,  5-H ) :   0.9199
B(  0-C , 15-O ) :   0.8683 B(  1-C ,  2-C ) :   0.9542 B(  1-C ,  6-H ) :   0.9392
B(  1-C ,  7-H ) :   0.9345 B(  2-C ,  3-C ) :   0.9563 B(  2-C ,  8-H ) :   0.9449
B(  2-C ,  9-H ) :   0.9441 B(  3-C ,  4-O ) :   0.8354 B(  3-C , 10-H ) :   0.9363
B(  3-C , 11-H ) :   0.9404 B( 12-C , 13-H ) :   0.9022 B( 12-C , 14-H ) :   0.9300
B( 12-C , 15-O ) :   0.8314 B( 12-C , 16-C ) :   0.9025 B( 16-C , 17-C ) :   0.8731
B( 16-C , 20-O ) :   0.8662 B( 16-C , 21-H ) :   0.9311 B( 17-C , 18-C ) :   0.9218
B( 17-C , 22-H ) :   0.9333 B( 17-C , 23-O ) :   0.8970 B( 18-C , 19-C ) :   0.9386
B( 18-C , 24-H ) :   0.9420 B( 18-C , 25-H ) :   0.9418 B( 19-C , 20-O ) :   0.8505
B( 19-C , 26-H ) :   0.9322 B( 19-C , 27-H ) :   0.9380 B( 23-O , 28-H ) :   0.7974

FINAL SINGLE POINT ENERGY      -652.860099260798

DIPOLE MOMENT
-------------
                                X             Y             Z
Electronic contribution:     -1.03076      -3.38060      -2.62184
Nuclear contribution   :      1.16478       3.91865       3.52234
                        -----------------------------------------
Total Dipole Moment    :      0.13402       0.53805       0.90050
                        -----------------------------------------
Magnitude (a.u.)       :      1.05753
Magnitude (Debye)      :      2.68802

Rotational constants in cm-1:     0.052759     0.012873     0.011834
Rotational constants in MHz :  1581.686566   385.910223   354.770237

                             ****ORCA TERMINATED NORMALLY****
TOTAL RUN TIME: 0 days 1 hours 54 minutes 35 seconds 133 msec
