                         Program Version 4.2.1 -  RELEASE  -
|  1> # Test redundant internal optimization
|  2> #
|  3> ! RKS B3LYP  Opt TightSCF SmallPrint
|  4>
|  5> %basis
|  6>         Basis "6-31G"
|  7> end
|  8>
|  9> %geom
| 10> Constraints
| 11> { D 4  0  19  14  75.0   C } # D for Dihedral angle
| 12> { D 0  19  14  12  105.0   C } # D for Dihedral angle
| 13> { D 0  4  3  2   C } # D for Dihedral angle
| 14> { D 4  3  2  1   C } # D for Dihedral angle
| 15> { D 3  2  1  0   C } # D for Dihedral angle
| 16> { D 2  1  0  4   C } # D for Dihedral angle
| 17> { D 1  0  4  3   C } # D for Dihedral angle
| 18> { D 14  15  16  17   C } # D for Dihedral angle
| 19> { D 15  16  17  12   C } # D for Dihedral angle
| 20> { D 16  17  12  14   C } # D for Dihedral angle
| 21> { D 17  12  14  15   C } # D for Dihedral angle
| 22> { D 12  14  15  16   C } # D for Dihedral angle
| 23> end
| 24> end
| 25>
| 26>
| 27> #%pal
| 28> #nprocs 8
| 29> #end
| 30>
| 31> * xyz 0 1
| 32> C  -21.048   26.222   46.251
| 33> C  -20.361   27.558   45.944
| 34> C  -20.329   28.222   47.341
| 35> C  -20.110   27.022   48.296
| 36> O  -20.473   25.807   47.535
| 37> H  -20.833   25.428   45.533
| 38> H  -19.344   27.382   45.576
| 39> H  -20.898   28.157   45.201
| 40> H  -19.543   28.978   47.434
| 41> H  -21.289   28.710   47.548
| 42> H  -20.733   27.082   49.195
| 43> H  -19.064   26.913   48.597
| 44> C  -23.408   28.607   46.060
| 45> H  -23.453   29.611   46.511
| 46> C  -22.881   27.571   47.060
| 47> C  -24.137   27.297   47.920
| 48> C  -25.295   27.406   46.897
| 49> O  -24.756   28.134   45.727
| 50> H  -22.848   28.659   45.125
| 51> O  -22.472   26.381   46.366
| 52> H  -22.033   27.935   47.650
| 53> H  -24.108   26.322   48.416
| 54> H  -24.236   28.065   48.697
| 55> H  -26.157   27.952   47.293
| 56> H  -25.630   26.427   46.539
| 57> *
| 58>
| 59>                          ****END OF INPUT****
 Total Charge           Charge          ....    0
 Multiplicity           Mult            ....    1
 Number of Electrons    NEL             ....   86
FINAL SINGLE POINT ENERGY      -538.366370397230
FINAL SINGLE POINT ENERGY      -538.420253189414
FINAL SINGLE POINT ENERGY      -538.424224709822
FINAL SINGLE POINT ENERGY      -538.425059699572
FINAL SINGLE POINT ENERGY      -538.425210628993
FINAL SINGLE POINT ENERGY      -538.425297126383
FINAL SINGLE POINT ENERGY      -538.425308278337
FINAL SINGLE POINT ENERGY      -538.425309476437
                    ***********************HURRAY********************

CARTESIAN COORDINATES (ANGSTROEM)
---------------------------------
  C    -21.120360   26.343921   46.421314
  C    -20.207598   27.481234   45.935497
  C    -19.857660   28.210460   47.267431
  C    -19.782543   27.037387   48.279434
  O    -20.491851   25.899400   47.648376
  H    -21.097485   25.478916   45.756624
  H    -19.309401   27.037927   45.494223
  H    -20.681655   28.125706   45.191224
  H    -18.907347   28.750225   47.204766
  H    -20.627432   28.938141   47.536435
  H    -20.254217   27.265262   49.240588
  H    -18.753482   26.712482   48.458383
  C    -23.658247   28.737712   46.172459
  H    -23.887732   29.698789   46.658628
  C    -23.121436   27.735106   47.194619
  C    -24.420706   27.249575   47.867691
  C    -25.445182   27.251465   46.709822
  O    -24.867899   28.108490   45.647524
  H    -22.988218   28.907939   45.328160
  O    -22.537135   26.572316   46.529455
  H    -22.431932   28.174151   47.919613
  H    -24.276098   26.262523   48.310967
  H    -24.712573   27.953304   48.656102
  H    -26.418432   27.657565   47.005990
  H    -25.582379   26.258005   46.276675

 Multiplicity           Mult            ....    1
 Number of Electrons    NEL             ....   86
 Basis Dimension        Dim             ....  127

ORBITAL ENERGIES
----------------

  NO   OCC          E(Eh)            E(eV)
   0   2.0000     -19.141763      -520.8739
   1   2.0000     -19.141590      -520.8692
   2   2.0000     -19.127220      -520.4781
   3   2.0000     -10.278906      -279.7033
   4   2.0000     -10.242083      -278.7013
   5   2.0000     -10.231583      -278.4155
   6   2.0000     -10.223721      -278.2016
   7   2.0000     -10.217414      -278.0300
   8   2.0000     -10.196948      -277.4731
   9   2.0000     -10.193868      -277.3892
  10   2.0000     -10.182975      -277.0928
  11   2.0000      -1.051963       -28.6254
  12   2.0000      -1.014404       -27.6033
  13   2.0000      -0.991065       -26.9682
  14   2.0000      -0.791833       -21.5469
  15   2.0000      -0.786115       -21.3913
  16   2.0000      -0.739705       -20.1284
  17   2.0000      -0.725078       -19.7304
  18   2.0000      -0.621850       -16.9214
  19   2.0000      -0.607346       -16.5267
  20   2.0000      -0.596935       -16.2434
  21   2.0000      -0.566835       -15.4244
  22   2.0000      -0.523528       -14.2459
  23   2.0000      -0.505047       -13.7430
  24   2.0000      -0.486700       -13.2438
  25   2.0000      -0.482716       -13.1354
  26   2.0000      -0.453511       -12.3407
  27   2.0000      -0.444412       -12.0931
  28   2.0000      -0.431065       -11.7299
  29   2.0000      -0.418428       -11.3860
  30   2.0000      -0.414179       -11.2704
  31   2.0000      -0.388923       -10.5831
  32   2.0000      -0.371975       -10.1220
  33   2.0000      -0.369599       -10.0573
  34   2.0000      -0.363518        -9.8918
  35   2.0000      -0.362768        -9.8714
  36   2.0000      -0.343450        -9.3458
  37   2.0000      -0.315777        -8.5927
  38   2.0000      -0.305939        -8.3250
  39   2.0000      -0.297175        -8.0866
  40   2.0000      -0.267127        -7.2689
  41   2.0000      -0.253653        -6.9023
  42   2.0000      -0.232746        -6.3333
  43   0.0000       0.064575         1.7572
  44   0.0000       0.086964         2.3664
  45   0.0000       0.092895         2.5278
  46   0.0000       0.106740         2.9045
  47   0.0000       0.113709         3.0942

MULLIKEN ATOMIC CHARGES
-----------------------
   0 C :    0.301372
   1 C :   -0.282602
   2 C :   -0.318634
   3 C :   -0.009479
   4 O :   -0.502625
   5 H :    0.167704
   6 H :    0.158001
   7 H :    0.151063
   8 H :    0.146958
   9 H :    0.146296
  10 H :    0.142725
  11 H :    0.148376
  12 C :    0.008419
  13 H :    0.119572
  14 C :    0.051799
  15 C :   -0.283433
  16 C :    0.003735
  17 O :   -0.518795
  18 H :    0.154284
  19 O :   -0.511634
  20 H :    0.129779
  21 H :    0.170408
  22 H :    0.136696
  23 H :    0.132287
  24 H :    0.157729
Sum of atomic charges:   -0.0000000

LOEWDIN ATOMIC CHARGES
----------------------
   0 C :    0.174932
   1 C :   -0.229690
   2 C :   -0.225335
   3 C :   -0.034633
   4 O :   -0.322257
   5 H :    0.114269
   6 H :    0.123374
   7 H :    0.117967
   8 H :    0.116419
   9 H :    0.106524
  10 H :    0.101171
  11 H :    0.105423
  12 C :   -0.042781
  13 H :    0.089224
  14 C :    0.033825
  15 C :   -0.223857
  16 C :   -0.026399
  17 O :   -0.329057
  18 H :    0.112939
  19 O :   -0.310817
  20 H :    0.099249
  21 H :    0.131975
  22 H :    0.109576
  23 H :    0.097212
  24 H :    0.110748

  Mayer bond orders larger than 0.100000
B(  0-C ,  1-C ) :   0.9162 B(  0-C ,  4-O ) :   0.8975 B(  0-C ,  5-H ) :   0.9357
B(  0-C , 19-O ) :   0.9143 B(  1-C ,  2-C ) :   0.9542 B(  1-C ,  6-H ) :   0.9349
B(  1-C ,  7-H ) :   0.9332 B(  2-C ,  3-C ) :   0.9452 B(  2-C ,  8-H ) :   0.9447
B(  2-C ,  9-H ) :   0.9396 B(  3-C ,  4-O ) :   0.8503 B(  3-C , 10-H ) :   0.9336
B(  3-C , 11-H ) :   0.9383 B( 12-C , 13-H ) :   0.9102 B( 12-C , 14-C ) :   0.9185
B( 12-C , 17-O ) :   0.8777 B( 12-C , 18-H ) :   0.9315 B( 14-C , 15-C ) :   0.9508
B( 14-C , 19-O ) :   0.8225 B( 14-C , 20-H ) :   0.9113 B( 15-C , 16-C ) :   0.9479
B( 15-C , 21-H ) :   0.9361 B( 15-C , 22-H ) :   0.9417 B( 16-C , 17-O ) :   0.8503
B( 16-C , 23-H ) :   0.9338 B( 16-C , 24-H ) :   0.9363

FINAL SINGLE POINT ENERGY      -538.425308384914

DIPOLE MOMENT
-------------
                                X             Y             Z
Electronic contribution:     -1.65830      -3.42325      -1.89177
Nuclear contribution   :      2.46762       4.38059       2.58703
                        -----------------------------------------
Total Dipole Moment    :      0.80932       0.95735       0.69526
                        -----------------------------------------
Magnitude (a.u.)       :      1.43349
Magnitude (Debye)      :      3.64364

Rotational constants in cm-1:     0.080032     0.021800     0.020545
Rotational constants in MHz :  2399.298443   653.561708   615.932324

                             ****ORCA TERMINATED NORMALLY****
TOTAL RUN TIME: 0 days 0 hours 9 minutes 42 seconds 640 msec
