                         Program Version 4.2.0 -  RELEASE  -
|  1> # Test redundant internal optimization
|  2> #
|  3> ! RKS B3LYP  Opt TightSCF SmallPrint
|  4>
|  5> %basis
|  6>         Basis "6-31G"
|  7> end
|  8>
|  9> %geom
| 10> Constraints
| 11> { D 4  0  15  12  285.0   C } # D for Dihedral angle
| 12> { D 0  15  12  16  240.0   C } # D for Dihedral angle
| 13> { D 0  4  3  2   C } # D for Dihedral angle
| 14> { D 4  3  2  1   C } # D for Dihedral angle
| 15> { D 3  2  1  0   C } # D for Dihedral angle
| 16> { D 2  1  0  4   C } # D for Dihedral angle
| 17> { D 1  0  4  3   C } # D for Dihedral angle
| 18> { D 16  20  19  18   C } # D for Dihedral angle
| 19> { D 20  19  18  17   C } # D for Dihedral angle
| 20> { D 19  18  17  16   C } # D for Dihedral angle
| 21> { D 18  17  16  20   C } # D for Dihedral angle
| 22> { D 17  16  20  19   C } # D for Dihedral angle
| 23> { D 15  12  16  20   C } # D for Dihedral angle
| 24> end
| 25> end
| 26>
| 27>
| 28> #%pal
| 29> #nprocs 8
| 30> #end
| 31>
| 32> * xyz 0 1
| 33> C  -21.048   26.222   46.251
| 34> C  -20.361   27.558   45.944
| 35> C  -20.329   28.222   47.341
| 36> C  -20.110   27.022   48.296
| 37> O  -20.473   25.807   47.535
| 38> H  -20.833   25.428   45.533
| 39> H  -19.344   27.382   45.576
| 40> H  -20.898   28.157   45.201
| 41> H  -19.543   28.978   47.434
| 42> H  -21.289   28.710   47.548
| 43> H  -20.733   27.082   49.195
| 44> H  -19.064   26.913   48.597
| 45> C  -23.396   25.070   46.435
| 46> H  -22.704   24.220   46.386
| 47> H  -23.954   25.004   47.378
| 48> O  -22.586   26.394   46.375
| 49> C  -24.417   24.937   45.272
| 50> C  -25.277   23.678   45.427
| 51> C  -26.309   24.131   46.486
| 52> C  -26.531   25.626   46.144
| 53> O  -25.383   26.040   45.309
| 54> H  -23.886   25.008   44.320
| 55> H  -25.774   23.441   44.479
| 56> O  -24.461   22.434   45.875
| 57> H  -27.238   23.552   46.449
| 58> H  -25.888   24.024   47.493
| 59> H  -26.572   26.259   47.037
| 60> H  -27.436   25.789   45.552
| 61> H  -23.955   22.646   46.823
| 62> *
| 63>
| 64>                          ****END OF INPUT****
 Total Charge           Charge          ....    0
 Multiplicity           Mult            ....    1
 Number of Electrons    NEL             ....  102
FINAL SINGLE POINT ENERGY      -652.830471180592
FINAL SINGLE POINT ENERGY      -652.854832314193
FINAL SINGLE POINT ENERGY      -652.859510973516
FINAL SINGLE POINT ENERGY      -652.860343030420
FINAL SINGLE POINT ENERGY      -652.860486440834
FINAL SINGLE POINT ENERGY      -652.860512987106
FINAL SINGLE POINT ENERGY      -652.860518137850
                    ***********************HURRAY********************

CARTESIAN COORDINATES (ANGSTROEM)
---------------------------------
  C    -21.080854   26.147098   46.249040
  C    -20.508258   27.526026   45.919632
  C    -20.467516   28.192023   47.313652
  C    -20.123247   27.015837   48.254986
  O    -20.433230   25.779554   47.492717
  H    -20.849901   25.346302   45.539246
  H    -19.499263   27.408674   45.508198
  H    -21.129039   28.065010   45.201450
  H    -19.731967   29.000292   47.373438
  H    -21.453647   28.600560   47.551623
  H    -20.710508   27.019599   49.176933
  H    -19.059143   26.969140   48.506006
  C    -23.273705   25.071595   46.521700
  H    -22.607544   24.199576   46.490062
  H    -23.769212   25.091262   47.499569
  O    -22.504495   26.302614   46.401669
  C    -24.291066   24.975136   45.386678
  C    -25.184899   23.725518   45.463747
  C    -26.283802   24.179144   46.471024
  C    -26.451121   25.678045   46.138896
  O    -25.238752   26.085842   45.383693
  H    -23.755589   25.038431   44.434296
  H    -25.623672   23.533109   44.482451
  O    -24.506574   22.492231   45.804712
  H    -27.209968   23.610132   46.355583
  H    -25.923691   24.032295   47.497932
  H    -26.543210   26.305335   47.030676
  H    -27.310178   25.863696   45.487250
  H    -24.267949   22.479922   46.754142

 Multiplicity           Mult            ....    1
 Number of Electrons    NEL             ....  102
 Basis Dimension        Dim             ....  149

ORBITAL ENERGIES
----------------

  NO   OCC          E(Eh)            E(eV)
   0   2.0000     -19.150168      -521.1026
   1   2.0000     -19.140390      -520.8365
   2   2.0000     -19.135887      -520.7140
   3   2.0000     -19.135486      -520.7030
   4   2.0000     -10.275102      -279.5997
   5   2.0000     -10.244969      -278.7798
   6   2.0000     -10.229542      -278.3600
   7   2.0000     -10.229414      -278.3565
   8   2.0000     -10.228261      -278.3251
   9   2.0000     -10.221524      -278.1418
  10   2.0000     -10.195210      -277.4258
  11   2.0000     -10.180475      -277.0248
  12   2.0000     -10.180303      -277.0201
  13   2.0000      -1.050952       -28.5979
  14   2.0000      -1.033247       -28.1161
  15   2.0000      -1.014731       -27.6122
  16   2.0000      -0.990013       -26.9396
  17   2.0000      -0.785997       -21.3881
  18   2.0000      -0.780862       -21.2483
  19   2.0000      -0.764810       -20.8115
  20   2.0000      -0.728029       -19.8107
  21   2.0000      -0.678444       -18.4614
  22   2.0000      -0.611233       -16.6325
  23   2.0000      -0.596139       -16.2218
  24   2.0000      -0.590621       -16.0716
  25   2.0000      -0.572682       -15.5835
  26   2.0000      -0.531000       -14.4492
  27   2.0000      -0.509653       -13.8684
  28   2.0000      -0.495746       -13.4899
  29   2.0000      -0.489736       -13.3264
  30   2.0000      -0.466383       -12.6909
  31   2.0000      -0.450649       -12.2628
  32   2.0000      -0.444200       -12.0873
  33   2.0000      -0.434095       -11.8123
  34   2.0000      -0.427379       -11.6296
  35   2.0000      -0.414632       -11.2827
  36   2.0000      -0.407579       -11.0908
  37   2.0000      -0.397948       -10.8287
  38   2.0000      -0.377694       -10.2776
  39   2.0000      -0.363398        -9.8886
  40   2.0000      -0.355109        -9.6630
  41   2.0000      -0.351999        -9.5784
  42   2.0000      -0.342711        -9.3256
  43   2.0000      -0.333715        -9.0808
  44   2.0000      -0.321353        -8.7444
  45   2.0000      -0.313906        -8.5418
  46   2.0000      -0.295380        -8.0377
  47   2.0000      -0.271758        -7.3949
  48   2.0000      -0.269178        -7.3247
  49   2.0000      -0.250755        -6.8234
  50   2.0000      -0.235499        -6.4083
  51   0.0000       0.051443         1.3998
  52   0.0000       0.078339         2.1317
  53   0.0000       0.090191         2.4542
  54   0.0000       0.095445         2.5972
  55   0.0000       0.104930         2.8553

MULLIKEN ATOMIC CHARGES
-----------------------
   0 C :    0.273911
   1 C :   -0.259187
   2 C :   -0.299125
   3 C :   -0.002347
   4 O :   -0.514362
   5 H :    0.142297
   6 H :    0.143151
   7 H :    0.162615
   8 H :    0.139190
   9 H :    0.166008
  10 H :    0.143860
  11 H :    0.141023
  12 C :   -0.014733
  13 H :    0.142096
  14 H :    0.135105
  15 O :   -0.505590
  16 C :    0.099626
  17 C :    0.084892
  18 C :   -0.321657
  19 C :   -0.010337
  20 O :   -0.506415
  21 H :    0.151848
  22 H :    0.166195
  23 O :   -0.600534
  24 H :    0.157635
  25 H :    0.132548
  26 H :    0.147238
  27 H :    0.148013
  28 H :    0.357035
Sum of atomic charges:    0.0000000

LOEWDIN ATOMIC CHARGES
----------------------
   0 C :    0.169580
   1 C :   -0.214783
   2 C :   -0.216028
   3 C :   -0.028014
   4 O :   -0.334490
   5 H :    0.095598
   6 H :    0.113147
   7 H :    0.126923
   8 H :    0.112471
   9 H :    0.120996
  10 H :    0.103789
  11 H :    0.101678
  12 C :   -0.048470
  13 H :    0.106655
  14 H :    0.100345
  15 O :   -0.314040
  16 C :    0.016077
  17 C :    0.033955
  18 C :   -0.240538
  19 C :   -0.030055
  20 O :   -0.315129
  21 H :    0.114042
  22 H :    0.119342
  23 O :   -0.407572
  24 H :    0.122555
  25 H :    0.103693
  26 H :    0.104359
  27 H :    0.105485
  28 H :    0.278427

  Mayer bond orders larger than 0.100000
B(  0-C ,  1-C ) :   0.9500 B(  0-C ,  4-O ) :   0.9008 B(  0-C ,  5-H ) :   0.9180
B(  0-C , 15-O ) :   0.8734 B(  1-C ,  2-C ) :   0.9570 B(  1-C ,  6-H ) :   0.9406
B(  1-C ,  7-H ) :   0.9351 B(  2-C ,  3-C ) :   0.9554 B(  2-C ,  8-H ) :   0.9454
B(  2-C ,  9-H ) :   0.9437 B(  3-C ,  4-O ) :   0.8390 B(  3-C , 10-H ) :   0.9363
B(  3-C , 11-H ) :   0.9405 B( 12-C , 13-H ) :   0.9048 B( 12-C , 14-H ) :   0.9330
B( 12-C , 15-O ) :   0.8402 B( 12-C , 16-C ) :   0.8974 B( 16-C , 17-C ) :   0.8710
B( 16-C , 20-O ) :   0.8682 B( 16-C , 21-H ) :   0.9331 B( 17-C , 18-C ) :   0.9212
B( 17-C , 22-H ) :   0.9335 B( 17-C , 23-O ) :   0.8970 B( 18-C , 19-C ) :   0.9391
B( 18-C , 24-H ) :   0.9420 B( 18-C , 25-H ) :   0.9421 B( 19-C , 20-O ) :   0.8514
B( 19-C , 26-H ) :   0.9311 B( 19-C , 27-H ) :   0.9378 B( 23-O , 28-H ) :   0.7973

FINAL SINGLE POINT ENERGY      -652.860519396268

DIPOLE MOMENT
-------------
                                X             Y             Z
Electronic contribution:     -0.49600      -2.58252      -2.08322
Nuclear contribution   :      0.26524       2.71430       2.67421
                        -----------------------------------------
Total Dipole Moment    :     -0.23076       0.13177       0.59100
                        -----------------------------------------
Magnitude (a.u.)       :      0.64799
Magnitude (Debye)      :      1.64706

Rotational constants in cm-1:     0.056283     0.012205     0.011204
Rotational constants in MHz :  1687.310307   365.900205   335.900912

                             ****ORCA TERMINATED NORMALLY****
TOTAL RUN TIME: 0 days 1 hours 2 minutes 33 seconds 363 msec
