                         Program Version 4.2.0 -  RELEASE  -
|  1> # Test redundant internal optimization
|  2> #
|  3> ! RKS B3LYP  Opt TightSCF SmallPrint
|  4>
|  5> %basis
|  6>         Basis "6-31G"
|  7> end
|  8>
|  9> %geom
| 10> Constraints
| 11> { D 4  0  15  12  270.0   C } # D for Dihedral angle
| 12> { D 0  15  12  16  180.0   C } # D for Dihedral angle
| 13> { D 0  4  3  2   C } # D for Dihedral angle
| 14> { D 4  3  2  1   C } # D for Dihedral angle
| 15> { D 3  2  1  0   C } # D for Dihedral angle
| 16> { D 2  1  0  4   C } # D for Dihedral angle
| 17> { D 1  0  4  3   C } # D for Dihedral angle
| 18> { D 16  20  19  18   C } # D for Dihedral angle
| 19> { D 20  19  18  17   C } # D for Dihedral angle
| 20> { D 19  18  17  16   C } # D for Dihedral angle
| 21> { D 18  17  16  20   C } # D for Dihedral angle
| 22> { D 17  16  20  19   C } # D for Dihedral angle
| 23> { D 15  12  16  20   C } # D for Dihedral angle
| 24> end
| 25> end
| 26>
| 27>
| 28> #%pal
| 29> #nprocs 8
| 30> #end
| 31>
| 32> * xyz 0 1
| 33> C  -21.048   26.222   46.251
| 34> C  -20.361   27.558   45.944
| 35> C  -20.329   28.222   47.341
| 36> C  -20.110   27.022   48.296
| 37> O  -20.473   25.807   47.535
| 38> H  -20.833   25.428   45.533
| 39> H  -19.344   27.382   45.576
| 40> H  -20.898   28.157   45.201
| 41> H  -19.543   28.978   47.434
| 42> H  -21.289   28.710   47.548
| 43> H  -20.733   27.082   49.195
| 44> H  -19.064   26.913   48.597
| 45> C  -23.420   25.119   46.072
| 46> H  -23.215   24.787   45.047
| 47> H  -23.142   24.307   46.757
| 48> O  -22.586   26.394   46.375
| 49> C  -24.949   25.354   46.213
| 50> C  -25.456   26.357   45.170
| 51> C  -25.553   25.472   43.905
| 52> C  -25.990   24.097   44.470
| 53> O  -25.686   24.121   45.917
| 54> H  -25.176   25.622   47.246
| 55> O  -26.859   26.885   45.578
| 56> H  -24.790   27.216   45.039
| 57> H  -26.259   25.863   43.166
| 58> H  -24.570   25.397   43.423
| 59> H  -25.454   23.263   44.005
| 60> H  -27.065   23.927   44.368
| 61> H  -27.545   26.041   45.715
| 62> *
| 63>
| 64>                          ****END OF INPUT****
 Total Charge           Charge          ....    0
 Multiplicity           Mult            ....    1
 Number of Electrons    NEL             ....  102
FINAL SINGLE POINT ENERGY      -652.839400251742
FINAL SINGLE POINT ENERGY      -652.863535214230
FINAL SINGLE POINT ENERGY      -652.867423690071
FINAL SINGLE POINT ENERGY      -652.868128316072
FINAL SINGLE POINT ENERGY      -652.868225955310
FINAL SINGLE POINT ENERGY      -652.868235905609
                    ***********************HURRAY********************

CARTESIAN COORDINATES (ANGSTROEM)
---------------------------------
  C    -21.098243   26.120875   46.222401
  C    -20.535916   27.509327   45.916571
  C    -20.590900   28.187453   47.305821
  C    -20.278298   27.024107   48.273019
  O    -20.518311   25.778354   47.501569
  H    -20.817794   25.325438   45.525507
  H    -19.501174   27.411855   45.568313
  H    -21.119816   28.032074   45.156390
  H    -19.877357   29.011379   47.401212
  H    -21.597269   28.577307   47.483793
  H    -20.919241   27.018570   49.158142
  H    -19.230073   27.000325   48.585559
  C    -23.290149   25.020526   46.049676
  H    -23.061735   24.635992   45.044605
  H    -23.033063   24.247212   46.782763
  O    -22.535770   26.240967   46.300828
  C    -24.768818   25.372850   46.182457
  C    -25.289116   26.399068   45.165550
  C    -25.507071   25.515143   43.911847
  C    -25.976241   24.164321   44.507825
  O    -25.582261   24.176235   45.939365
  H    -24.972089   25.702020   47.205067
  O    -26.533581   26.995865   45.625289
  H    -24.601812   27.228290   45.008399
  H    -26.246937   25.965885   43.245478
  H    -24.569543   25.402516   43.356564
  H    -25.515591   23.300203   44.019907
  H    -27.063694   24.044940   44.475128
  H    -27.108138   26.293904   45.997954

 Multiplicity           Mult            ....    1
 Number of Electrons    NEL             ....  102
 Basis Dimension        Dim             ....  149

ORBITAL ENERGIES
----------------

  NO   OCC          E(Eh)            E(eV)
   0   2.0000     -19.148076      -521.0456
   1   2.0000     -19.145101      -520.9647
   2   2.0000     -19.138999      -520.7986
   3   2.0000     -19.134574      -520.6782
   4   2.0000     -10.280787      -279.7544
   5   2.0000     -10.235466      -278.5212
   6   2.0000     -10.232871      -278.4506
   7   2.0000     -10.232119      -278.4301
   8   2.0000     -10.231204      -278.4052
   9   2.0000     -10.224210      -278.2149
  10   2.0000     -10.188099      -277.2323
  11   2.0000     -10.186046      -277.1764
  12   2.0000     -10.184731      -277.1406
  13   2.0000      -1.055556       -28.7231
  14   2.0000      -1.035792       -28.1853
  15   2.0000      -1.003962       -27.3192
  16   2.0000      -0.996803       -27.1244
  17   2.0000      -0.790211       -21.5027
  18   2.0000      -0.778472       -21.1833
  19   2.0000      -0.767644       -20.8887
  20   2.0000      -0.729160       -19.8415
  21   2.0000      -0.673935       -18.3387
  22   2.0000      -0.604198       -16.4411
  23   2.0000      -0.598282       -16.2801
  24   2.0000      -0.588844       -16.0232
  25   2.0000      -0.586006       -15.9460
  26   2.0000      -0.522212       -14.2101
  27   2.0000      -0.519570       -14.1382
  28   2.0000      -0.496255       -13.5038
  29   2.0000      -0.488936       -13.3046
  30   2.0000      -0.469449       -12.7744
  31   2.0000      -0.456850       -12.4315
  32   2.0000      -0.451424       -12.2839
  33   2.0000      -0.438135       -11.9223
  34   2.0000      -0.425835       -11.5875
  35   2.0000      -0.411493       -11.1973
  36   2.0000      -0.401758       -10.9324
  37   2.0000      -0.392107       -10.6698
  38   2.0000      -0.375761       -10.2250
  39   2.0000      -0.367289        -9.9944
  40   2.0000      -0.358904        -9.7663
  41   2.0000      -0.355984        -9.6868
  42   2.0000      -0.348959        -9.4956
  43   2.0000      -0.333376        -9.0716
  44   2.0000      -0.322744        -8.7823
  45   2.0000      -0.307847        -8.3769
  46   2.0000      -0.303464        -8.2577
  47   2.0000      -0.273771        -7.4497
  48   2.0000      -0.266174        -7.2430
  49   2.0000      -0.252622        -6.8742
  50   2.0000      -0.246341        -6.7033
  51   0.0000       0.064414         1.7528
  52   0.0000       0.076372         2.0782
  53   0.0000       0.094475         2.5708
  54   0.0000       0.099503         2.7076
  55   0.0000       0.106429         2.8961

MULLIKEN ATOMIC CHARGES
-----------------------
   0 C :    0.288334
   1 C :   -0.257587
   2 C :   -0.299239
   3 C :   -0.001562
   4 O :   -0.507441
   5 H :    0.140739
   6 H :    0.144922
   7 H :    0.150942
   8 H :    0.141204
   9 H :    0.165233
  10 H :    0.150291
  11 H :    0.141853
  12 C :    0.000693
  13 H :    0.120710
  14 H :    0.165619
  15 O :   -0.529178
  16 C :    0.053055
  17 C :    0.092381
  18 C :   -0.303516
  19 C :   -0.030453
  20 O :   -0.527672
  21 H :    0.168963
  22 O :   -0.603822
  23 H :    0.171309
  24 H :    0.163925
  25 H :    0.144123
  26 H :    0.145108
  27 H :    0.148442
  28 H :    0.362622
Sum of atomic charges:   -0.0000000

LOEWDIN ATOMIC CHARGES
----------------------
   0 C :    0.173382
   1 C :   -0.216505
   2 C :   -0.215884
   3 C :   -0.026848
   4 O :   -0.325910
   5 H :    0.097991
   6 H :    0.113783
   7 H :    0.120832
   8 H :    0.113760
   9 H :    0.120537
  10 H :    0.107169
  11 H :    0.102402
  12 C :   -0.038146
  13 H :    0.088624
  14 H :    0.113563
  15 O :   -0.332821
  16 C :    0.018292
  17 C :    0.038240
  18 C :   -0.242764
  19 C :   -0.038291
  20 O :   -0.330078
  21 H :    0.120246
  22 O :   -0.415029
  23 H :    0.125234
  24 H :    0.126969
  25 H :    0.112790
  26 H :    0.103536
  27 H :    0.103395
  28 H :    0.281532

  Mayer bond orders larger than 0.100000
B(  0-C ,  1-C ) :   0.9469 B(  0-C ,  4-O ) :   0.9217 B(  0-C ,  5-H ) :   0.9202
B(  0-C , 15-O ) :   0.8484 B(  1-C ,  2-C ) :   0.9575 B(  1-C ,  6-H ) :   0.9396
B(  1-C ,  7-H ) :   0.9372 B(  2-C ,  3-C ) :   0.9545 B(  2-C ,  8-H ) :   0.9452
B(  2-C ,  9-H ) :   0.9437 B(  3-C ,  4-O ) :   0.8363 B(  3-C , 10-H ) :   0.9353
B(  3-C , 11-H ) :   0.9402 B( 12-C , 13-H ) :   0.9191 B( 12-C , 14-H ) :   0.9144
B( 12-C , 15-O ) :   0.8210 B( 12-C , 16-C ) :   0.9110 B( 16-C , 17-C ) :   0.9118
B( 16-C , 20-O ) :   0.8437 B( 16-C , 21-H ) :   0.9247 B( 17-C , 18-C ) :   0.9117
B( 17-C , 22-O ) :   0.8884 B( 17-C , 23-H ) :   0.9248 B( 18-C , 19-C ) :   0.9417
B( 18-C , 24-H ) :   0.9375 B( 18-C , 25-H ) :   0.9349 B( 19-C , 20-O ) :   0.8447
B( 19-C , 26-H ) :   0.9357 B( 19-C , 27-H ) :   0.9379 B( 22-O , 28-H ) :   0.7957

FINAL SINGLE POINT ENERGY      -652.868238002447

DIPOLE MOMENT
-------------
                                X             Y             Z
Electronic contribution:     -2.74424      -2.38212       2.18310
Nuclear contribution   :      3.27630       2.50261      -2.98617
                        -----------------------------------------
Total Dipole Moment    :      0.53206       0.12050      -0.80307
                        -----------------------------------------
Magnitude (a.u.)       :      0.97084
Magnitude (Debye)      :      2.46767

Rotational constants in cm-1:     0.058829     0.011970     0.011343
Rotational constants in MHz :  1763.660717   358.864300   340.055898

                             ****ORCA TERMINATED NORMALLY****
TOTAL RUN TIME: 0 days 0 hours 42 minutes 5 seconds 790 msec
