                         Program Version 4.2.0 -  RELEASE  -
|  1> # Test redundant internal optimization
|  2> #
|  3> ! RKS B3LYP  Opt TightSCF SmallPrint
|  4>
|  5> %basis
|  6>         Basis "6-31G"
|  7> end
|  8>
|  9> %geom
| 10> Constraints
| 11> { D 4  0  15  12  90.0   C } # D for Dihedral angle
| 12> { D 0  15  12  16  135.0   C } # D for Dihedral angle
| 13> { D 0  4  3  2   C } # D for Dihedral angle
| 14> { D 4  3  2  1   C } # D for Dihedral angle
| 15> { D 3  2  1  0   C } # D for Dihedral angle
| 16> { D 2  1  0  4   C } # D for Dihedral angle
| 17> { D 1  0  4  3   C } # D for Dihedral angle
| 18> { D 16  20  19  18   C } # D for Dihedral angle
| 19> { D 20  19  18  17   C } # D for Dihedral angle
| 20> { D 19  18  17  16   C } # D for Dihedral angle
| 21> { D 18  17  16  20   C } # D for Dihedral angle
| 22> { D 17  16  20  19   C } # D for Dihedral angle
| 23> { D 15  12  16  20   C } # D for Dihedral angle
| 24> end
| 25> end
| 26>
| 27>
| 28> #%pal
| 29> #nprocs 8
| 30> #end
| 31>
| 32> * xyz 0 1
| 33> C  -21.048   26.222   46.251
| 34> C  -20.361   27.558   45.944
| 35> C  -20.329   28.222   47.341
| 36> C  -20.110   27.022   48.296
| 37> O  -20.473   25.807   47.535
| 38> H  -20.833   25.428   45.533
| 39> H  -19.344   27.382   45.576
| 40> H  -20.898   28.157   45.201
| 41> H  -19.543   28.978   47.434
| 42> H  -21.289   28.710   47.548
| 43> H  -20.733   27.082   49.195
| 44> H  -19.064   26.913   48.597
| 45> C  -23.061   27.816   46.783
| 46> H  -23.369   27.806   47.836
| 47> H  -22.244   28.540   46.672
| 48> O  -22.586   26.394   46.375
| 49> C  -24.257   28.318   45.928
| 50> C  -24.624   29.764   46.279
| 51> C  -23.541   30.557   45.509
| 52> C  -23.334   29.715   44.226
| 53> O  -23.886   28.373   44.510
| 54> H  -25.083   27.608   46.016
| 55> H  -25.623   30.003   45.897
| 56> O  -24.604   30.045   47.806
| 57> H  -23.845   31.586   45.288
| 58> H  -22.616   30.600   46.097
| 59> H  -22.277   29.617   43.955
| 60> H  -23.884   30.115   43.370
| 61> H  -23.612   29.814   48.212
| 62> *
| 63>
| 64>                          ****END OF INPUT****
 Total Charge           Charge          ....    0
 Multiplicity           Mult            ....    1
 Number of Electrons    NEL             ....  102
FINAL SINGLE POINT ENERGY      -652.793476858065
FINAL SINGLE POINT ENERGY      -652.826692589904
FINAL SINGLE POINT ENERGY      -652.844213629642
FINAL SINGLE POINT ENERGY      -652.847366984215
FINAL SINGLE POINT ENERGY      -652.847821255548
FINAL SINGLE POINT ENERGY      -652.847948100207
FINAL SINGLE POINT ENERGY      -652.847963392836
FINAL SINGLE POINT ENERGY      -652.847964237471
                    ***********************HURRAY********************

CARTESIAN COORDINATES (ANGSTROEM)
---------------------------------
  C    -21.174086   26.333642   46.376625
  C    -20.175941   27.433457   45.982099
  C    -19.816148   28.060514   47.362997
  C    -19.846954   26.826011   48.303095
  O    -20.609319   25.779564   47.589533
  H    -21.194502   25.502058   45.671162
  H    -19.296095   26.959599   45.536548
  H    -20.591777   28.144531   45.263012
  H    -18.831327   28.538749   47.356023
  H    -20.544791   28.815170   47.669120
  H    -20.328734   27.030887   49.264407
  H    -18.846668   26.423141   48.487717
  C    -23.088689   27.958098   46.884772
  H    -23.494956   27.874123   47.900298
  H    -22.312281   28.730344   46.876241
  O    -22.567574   26.670931   46.467536
  C    -24.200743   28.335351   45.905233
  C    -24.853645   29.704001   46.164799
  C    -23.850798   30.671987   45.468000
  C    -23.375111   29.852658   44.248925
  O    -23.708095   28.431894   44.532959
  H    -24.933234   27.523379   45.898920
  H    -25.824959   29.739724   45.667759
  O    -25.142962   30.010223   47.549924
  H    -24.316119   31.620903   45.189192
  H    -23.021007   30.892772   46.153200
  H    -22.298626   29.940148   44.069467
  H    -23.905798   30.128230   43.333344
  H    -24.320059   30.219909   48.037095

 Multiplicity           Mult            ....    1
 Number of Electrons    NEL             ....  102
 Basis Dimension        Dim             ....  149

ORBITAL ENERGIES
----------------

  NO   OCC          E(Eh)            E(eV)
   0   2.0000     -19.152866      -521.1760
   1   2.0000     -19.141060      -520.8547
   2   2.0000     -19.139048      -520.8000
   3   2.0000     -19.136658      -520.7349
   4   2.0000     -10.276235      -279.6306
   5   2.0000     -10.248269      -278.8696
   6   2.0000     -10.234880      -278.5052
   7   2.0000     -10.233895      -278.4784
   8   2.0000     -10.231003      -278.3998
   9   2.0000     -10.228264      -278.3252
  10   2.0000     -10.200046      -277.5574
  11   2.0000     -10.196204      -277.4528
  12   2.0000     -10.192316      -277.3470
  13   2.0000      -1.048853       -28.5407
  14   2.0000      -1.036078       -28.1931
  15   2.0000      -1.018697       -27.7202
  16   2.0000      -0.993525       -27.0352
  17   2.0000      -0.789066       -21.4716
  18   2.0000      -0.786809       -21.4102
  19   2.0000      -0.774378       -21.0719
  20   2.0000      -0.733140       -19.9497
  21   2.0000      -0.687459       -18.7067
  22   2.0000      -0.615325       -16.7438
  23   2.0000      -0.605504       -16.4766
  24   2.0000      -0.599066       -16.3014
  25   2.0000      -0.573365       -15.6020
  26   2.0000      -0.529960       -14.4209
  27   2.0000      -0.509507       -13.8644
  28   2.0000      -0.507445       -13.8083
  29   2.0000      -0.493927       -13.4404
  30   2.0000      -0.472158       -12.8481
  31   2.0000      -0.462436       -12.5835
  32   2.0000      -0.449322       -12.2267
  33   2.0000      -0.436945       -11.8899
  34   2.0000      -0.428164       -11.6509
  35   2.0000      -0.421740       -11.4761
  36   2.0000      -0.411786       -11.2053
  37   2.0000      -0.403616       -10.9830
  38   2.0000      -0.384254       -10.4561
  39   2.0000      -0.380946       -10.3661
  40   2.0000      -0.362287        -9.8583
  41   2.0000      -0.359475        -9.7818
  42   2.0000      -0.349506        -9.5105
  43   2.0000      -0.334255        -9.0956
  44   2.0000      -0.318158        -8.6575
  45   2.0000      -0.313281        -8.5248
  46   2.0000      -0.293501        -7.9866
  47   2.0000      -0.273869        -7.4523
  48   2.0000      -0.264606        -7.2003
  49   2.0000      -0.255016        -6.9393
  50   2.0000      -0.240539        -6.5454
  51   0.0000       0.042075         1.1449
  52   0.0000       0.059064         1.6072
  53   0.0000       0.082193         2.2366
  54   0.0000       0.089956         2.4478
  55   0.0000       0.102277         2.7831

MULLIKEN ATOMIC CHARGES
-----------------------
   0 C :    0.312311
   1 C :   -0.295895
   2 C :   -0.315568
   3 C :   -0.005311
   4 O :   -0.500520
   5 H :    0.170678
   6 H :    0.159018
   7 H :    0.156839
   8 H :    0.144864
   9 H :    0.139685
  10 H :    0.142674
  11 H :    0.146790
  12 C :   -0.012451
  13 H :    0.143515
  14 H :    0.114907
  15 O :   -0.514557
  16 C :    0.091825
  17 C :    0.083620
  18 C :   -0.325187
  19 C :   -0.011163
  20 O :   -0.506660
  21 H :    0.173445
  22 H :    0.171219
  23 O :   -0.597494
  24 H :    0.159045
  25 H :    0.130355
  26 H :    0.138742
  27 H :    0.151161
  28 H :    0.354111
Sum of atomic charges:   -0.0000000

LOEWDIN ATOMIC CHARGES
----------------------
   0 C :    0.179395
   1 C :   -0.231534
   2 C :   -0.225087
   3 C :   -0.032746
   4 O :   -0.321003
   5 H :    0.115385
   6 H :    0.124953
   7 H :    0.119775
   8 H :    0.114983
   9 H :    0.102584
  10 H :    0.101729
  11 H :    0.104068
  12 C :   -0.049686
  13 H :    0.106256
  14 H :    0.088328
  15 O :   -0.307969
  16 C :    0.018072
  17 C :    0.034843
  18 C :   -0.242517
  19 C :   -0.031455
  20 O :   -0.315199
  21 H :    0.123582
  22 H :    0.121250
  23 O :   -0.405753
  24 H :    0.123581
  25 H :    0.101698
  26 H :    0.098594
  27 H :    0.107167
  28 H :    0.276706

  Mayer bond orders larger than 0.100000
B(  0-C ,  1-C ) :   0.9234 B(  0-C ,  4-O ) :   0.8962 B(  0-C ,  5-H ) :   0.9345
B(  0-C , 15-O ) :   0.9027 B(  1-C ,  2-C ) :   0.9529 B(  1-C ,  6-H ) :   0.9350
B(  1-C ,  7-H ) :   0.9297 B(  2-C ,  3-C ) :   0.9453 B(  2-C ,  8-H ) :   0.9456
B(  2-C ,  9-H ) :   0.9391 B(  3-C ,  4-O ) :   0.8540 B(  3-C , 10-H ) :   0.9342
B(  3-C , 11-H ) :   0.9388 B( 12-C , 13-H ) :   0.9136 B( 12-C , 14-H ) :   0.9049
B( 12-C , 15-O ) :   0.8478 B( 12-C , 16-C ) :   0.9001 B( 16-C , 17-C ) :   0.8722
B( 16-C , 20-O ) :   0.8655 B( 16-C , 21-H ) :   0.9274 B( 17-C , 18-C ) :   0.9211
B( 17-C , 22-H ) :   0.9320 B( 17-C , 23-O ) :   0.8973 B( 18-C , 19-C ) :   0.9391
B( 18-C , 24-H ) :   0.9416 B( 18-C , 25-H ) :   0.9412 B( 19-C , 20-O ) :   0.8538
B( 19-C , 26-H ) :   0.9295 B( 19-C , 27-H ) :   0.9377 B( 23-O , 28-H ) :   0.7993

FINAL SINGLE POINT ENERGY      -652.847962349852

DIPOLE MOMENT
-------------
                                X             Y             Z
Electronic contribution:     -4.51170      -5.18731      -0.16718
Nuclear contribution   :      5.62362       6.99464       0.16243
                        -----------------------------------------
Total Dipole Moment    :      1.11192       1.80733      -0.00475
                        -----------------------------------------
Magnitude (a.u.)       :      2.12199
Magnitude (Debye)      :      5.39367

Rotational constants in cm-1:     0.047852     0.014442     0.013790
Rotational constants in MHz :  1434.571622   432.960236   413.423837

                             ****ORCA TERMINATED NORMALLY****
TOTAL RUN TIME: 0 days 1 hours 12 minutes 2 seconds 582 msec
