                         Program Version 4.2.0 -  RELEASE  -
|  1> # Test redundant internal optimization
|  2> #
|  3> ! RKS B3LYP  Opt TightSCF SmallPrint
|  4>
|  5> %basis
|  6>         Basis "6-31G"
|  7> end
|  8>
|  9> %geom
| 10> Constraints
| 11> { D 4  0  15  12  150.0   C } # D for Dihedral angle
| 12> { D 0  15  12  16  150.0   C } # D for Dihedral angle
| 13> { D 0  4  3  2   C } # D for Dihedral angle
| 14> { D 4  3  2  1   C } # D for Dihedral angle
| 15> { D 3  2  1  0   C } # D for Dihedral angle
| 16> { D 2  1  0  4   C } # D for Dihedral angle
| 17> { D 1  0  4  3   C } # D for Dihedral angle
| 18> { D 16  20  19  18   C } # D for Dihedral angle
| 19> { D 20  19  18  17   C } # D for Dihedral angle
| 20> { D 19  18  17  16   C } # D for Dihedral angle
| 21> { D 18  17  16  20   C } # D for Dihedral angle
| 22> { D 17  16  20  19   C } # D for Dihedral angle
| 23> { D 15  12  16  20   C } # D for Dihedral angle
| 24> end
| 25> end
| 26>
| 27>
| 28> #%pal
| 29> #nprocs 8
| 30> #end
| 31>
| 32> * xyz 0 1
| 33> C  -21.048   26.222   46.251
| 34> C  -20.361   27.558   45.944
| 35> C  -20.329   28.222   47.341
| 36> C  -20.110   27.022   48.296
| 37> O  -20.473   25.807   47.535
| 38> H  -20.833   25.428   45.533
| 39> H  -19.344   27.382   45.576
| 40> H  -20.898   28.157   45.201
| 41> H  -19.543   28.978   47.434
| 42> H  -21.289   28.710   47.548
| 43> H  -20.733   27.082   49.195
| 44> H  -19.064   26.913   48.597
| 45> C  -23.210   27.459   45.431
| 46> H  -23.207   28.434   45.934
| 47> H  -22.621   27.547   44.509
| 48> O  -22.586   26.394   46.375
| 49> C  -24.672   27.121   45.028
| 50> C  -24.767   25.727   44.397
| 51> C  -24.739   24.815   45.648
| 52> C  -25.512   25.643   46.704
| 53> O  -25.526   27.039   46.217
| 54> H  -25.066   27.926   44.406
| 55> H  -25.718   25.620   43.863
| 56> O  -23.611   25.424   43.406
| 57> H  -25.194   23.835   45.470
| 58> H  -23.703   24.649   45.969
| 59> H  -25.038   25.611   47.691
| 60> H  -26.554   25.326   46.802
| 61> H  -22.649   25.525   43.920
| 62> *
| 63>
| 64>                          ****END OF INPUT****
 Total Charge           Charge          ....    0
 Multiplicity           Mult            ....    1
 Number of Electrons    NEL             ....  102
FINAL SINGLE POINT ENERGY      -652.824601041071
FINAL SINGLE POINT ENERGY      -652.847947842343
FINAL SINGLE POINT ENERGY      -652.852895230764
FINAL SINGLE POINT ENERGY      -652.854810406419
FINAL SINGLE POINT ENERGY      -652.855071312667
FINAL SINGLE POINT ENERGY      -652.855131306242
FINAL SINGLE POINT ENERGY      -652.855134772938
                    ***********************HURRAY********************

CARTESIAN COORDINATES (ANGSTROEM)
---------------------------------
  C    -21.064529   26.310710   46.232723
  C    -20.257325   27.577044   45.946617
  C    -20.264877   28.284626   47.326928
  C    -20.206653   27.099878   48.313843
  O    -20.619291   25.904832   47.533914
  H    -20.868382   25.473653   45.555754
  H    -19.238704   27.281785   45.670213
  H    -20.655564   28.198841   45.142122
  H    -19.420655   28.970060   47.446753
  H    -21.189992   28.855664   47.456184
  H    -20.884693   27.212369   49.163054
  H    -19.195356   26.899276   48.678596
  C    -23.157807   27.507012   45.454353
  H    -23.167336   28.481912   45.956168
  H    -22.631720   27.607173   44.495344
  O    -22.510831   26.522192   46.315564
  C    -24.593859   27.095415   45.140259
  C    -24.763347   25.751984   44.410316
  C    -24.766750   24.739537   45.597213
  C    -25.487143   25.528712   46.711837
  O    -25.433941   26.960932   46.320570
  H    -25.025654   27.915540   44.552283
  H    -25.718286   25.741822   43.880240
  O    -23.763360   25.492842   43.392322
  H    -25.279141   23.807297   45.341680
  H    -23.736599   24.521890   45.887486
  H    -25.001829   25.415498   47.684404
  H    -26.545346   25.263732   46.797750
  H    -22.949028   25.153776   43.816510

 Multiplicity           Mult            ....    1
 Number of Electrons    NEL             ....  102
 Basis Dimension        Dim             ....  149

ORBITAL ENERGIES
----------------

  NO   OCC          E(Eh)            E(eV)
   0   2.0000     -19.145789      -520.9834
   1   2.0000     -19.145668      -520.9801
   2   2.0000     -19.142592      -520.8964
   3   2.0000     -19.130388      -520.5643
   4   2.0000     -10.288938      -279.9762
   5   2.0000     -10.236269      -278.5430
   6   2.0000     -10.232253      -278.4338
   7   2.0000     -10.230459      -278.3849
   8   2.0000     -10.229005      -278.3454
   9   2.0000     -10.217671      -278.0370
  10   2.0000     -10.197114      -277.4776
  11   2.0000     -10.195171      -277.4247
  12   2.0000     -10.177845      -276.9532
  13   2.0000      -1.057892       -28.7867
  14   2.0000      -1.027039       -27.9472
  15   2.0000      -1.009325       -27.4651
  16   2.0000      -0.995260       -27.0824
  17   2.0000      -0.794177       -21.6107
  18   2.0000      -0.773362       -21.0442
  19   2.0000      -0.764786       -20.8109
  20   2.0000      -0.736412       -20.0388
  21   2.0000      -0.680341       -18.5130
  22   2.0000      -0.609107       -16.5746
  23   2.0000      -0.600742       -16.3470
  24   2.0000      -0.599946       -16.3254
  25   2.0000      -0.561780       -15.2868
  26   2.0000      -0.529140       -14.3986
  27   2.0000      -0.508453       -13.8357
  28   2.0000      -0.507147       -13.8002
  29   2.0000      -0.490544       -13.3484
  30   2.0000      -0.472893       -12.8681
  31   2.0000      -0.458651       -12.4805
  32   2.0000      -0.445192       -12.1143
  33   2.0000      -0.425807       -11.5868
  34   2.0000      -0.424383       -11.5480
  35   2.0000      -0.417468       -11.3599
  36   2.0000      -0.406336       -11.0570
  37   2.0000      -0.399417       -10.8687
  38   2.0000      -0.386640       -10.5210
  39   2.0000      -0.366629        -9.9765
  40   2.0000      -0.364177        -9.9097
  41   2.0000      -0.359389        -9.7795
  42   2.0000      -0.349470        -9.5096
  43   2.0000      -0.324617        -8.8333
  44   2.0000      -0.315528        -8.5860
  45   2.0000      -0.309434        -8.4201
  46   2.0000      -0.302206        -8.2234
  47   2.0000      -0.269876        -7.3437
  48   2.0000      -0.261990        -7.1291
  49   2.0000      -0.258685        -7.0392
  50   2.0000      -0.234856        -6.3908
  51   0.0000       0.050413         1.3718
  52   0.0000       0.078196         2.1278
  53   0.0000       0.091169         2.4808
  54   0.0000       0.095463         2.5977
  55   0.0000       0.105118         2.8604

MULLIKEN ATOMIC CHARGES
-----------------------
   0 C :    0.311569
   1 C :   -0.294201
   2 C :   -0.302846
   3 C :   -0.000994
   4 O :   -0.498004
   5 H :    0.136145
   6 H :    0.154119
   7 H :    0.149441
   8 H :    0.147418
   9 H :    0.160829
  10 H :    0.157480
  11 H :    0.144836
  12 C :   -0.016494
  13 H :    0.144435
  14 H :    0.135480
  15 O :   -0.530078
  16 C :    0.092950
  17 C :    0.085023
  18 C :   -0.315280
  19 C :    0.000854
  20 O :   -0.522326
  21 H :    0.146331
  22 H :    0.161050
  23 O :   -0.609829
  24 H :    0.140830
  25 H :    0.168259
  26 H :    0.154865
  27 H :    0.139020
  28 H :    0.359119
Sum of atomic charges:   -0.0000000

LOEWDIN ATOMIC CHARGES
----------------------
   0 C :    0.180399
   1 C :   -0.233652
   2 C :   -0.216492
   3 C :   -0.025512
   4 O :   -0.305348
   5 H :    0.092952
   6 H :    0.120490
   7 H :    0.116948
   8 H :    0.117082
   9 H :    0.116242
  10 H :    0.111227
  11 H :    0.104317
  12 C :   -0.047775
  13 H :    0.103354
  14 H :    0.099408
  15 O :   -0.341967
  16 C :    0.019154
  17 C :    0.037428
  18 C :   -0.241909
  19 C :   -0.022451
  20 O :   -0.323206
  21 H :    0.112461
  22 H :    0.115385
  23 O :   -0.413357
  24 H :    0.113491
  25 H :    0.122890
  26 H :    0.110160
  27 H :    0.099883
  28 H :    0.278398

  Mayer bond orders larger than 0.100000
B(  0-C ,  1-C ) :   0.9350 B(  0-C ,  4-O ) :   0.9394 B(  0-C ,  5-H ) :   0.9232
B(  0-C , 15-O ) :   0.8370 B(  1-C ,  2-C ) :   0.9496 B(  1-C ,  6-H ) :   0.9334
B(  1-C ,  7-H ) :   0.9266 B(  2-C ,  3-C ) :   0.9544 B(  2-C ,  8-H ) :   0.9449
B(  2-C ,  9-H ) :   0.9430 B(  3-C ,  4-O ) :   0.8331 B(  3-C , 10-H ) :   0.9340
B(  3-C , 11-H ) :   0.9397 B( 12-C , 13-H ) :   0.9184 B( 12-C , 14-H ) :   0.8995
B( 12-C , 15-O ) :   0.8369 B( 12-C , 16-C ) :   0.9091 B( 16-C , 17-C ) :   0.8841
B( 16-C , 20-O ) :   0.8828 B( 16-C , 21-H ) :   0.9275 B( 17-C , 18-C ) :   0.9381
B( 17-C , 22-H ) :   0.9354 B( 17-C , 23-O ) :   0.8924 B( 18-C , 19-C ) :   0.9477
B( 18-C , 24-H ) :   0.9407 B( 18-C , 25-H ) :   0.9256 B( 19-C , 20-O ) :   0.8359
B( 19-C , 26-H ) :   0.9316 B( 19-C , 27-H ) :   0.9381 B( 23-O , 28-H ) :   0.7963

FINAL SINGLE POINT ENERGY      -652.855133720544

DIPOLE MOMENT
-------------
                                X             Y             Z
Electronic contribution:     -2.66347      -2.01100      -0.82495
Nuclear contribution   :      3.63680       2.47683       0.77076
                        -----------------------------------------
Total Dipole Moment    :      0.97333       0.46583      -0.05419
                        -----------------------------------------
Magnitude (a.u.)       :      1.08042
Magnitude (Debye)      :      2.74620

Rotational constants in cm-1:     0.048807     0.015284     0.014447
Rotational constants in MHz :  1463.195913   458.211446   433.115101

                             ****ORCA TERMINATED NORMALLY****
TOTAL RUN TIME: 0 days 0 hours 18 minutes 5 seconds 405 msec
