                         Program Version 4.2.0 -  RELEASE  -
|  1> # Test redundant internal optimization
|  2> #
|  3> ! RKS B3LYP  Opt TightSCF SmallPrint
|  4>
|  5> %basis
|  6>         Basis "6-31G"
|  7> end
|  8>
|  9> %geom
| 10> Constraints
| 11> { D 4  0  15  12  120.0   C } # D for Dihedral angle
| 12> { D 0  15  12  16  210.0   C } # D for Dihedral angle
| 13> { D 0  4  3  2   C } # D for Dihedral angle
| 14> { D 4  3  2  1   C } # D for Dihedral angle
| 15> { D 3  2  1  0   C } # D for Dihedral angle
| 16> { D 2  1  0  4   C } # D for Dihedral angle
| 17> { D 1  0  4  3   C } # D for Dihedral angle
| 18> { D 16  20  19  18   C } # D for Dihedral angle
| 19> { D 20  19  18  17   C } # D for Dihedral angle
| 20> { D 19  18  17  16   C } # D for Dihedral angle
| 21> { D 18  17  16  20   C } # D for Dihedral angle
| 22> { D 17  16  20  19   C } # D for Dihedral angle
| 23> { D 15  12  16  20   C } # D for Dihedral angle
| 24> end
| 25> end
| 26>
| 27>
| 28> #%pal
| 29> #nprocs 8
| 30> #end
| 31>
| 32> * xyz 0 1
| 33> C  -21.048   26.222   46.251
| 34> C  -20.361   27.558   45.944
| 35> C  -20.329   28.222   47.341
| 36> C  -20.110   27.022   48.296
| 37> O  -20.473   25.807   47.535
| 38> H  -20.833   25.428   45.533
| 39> H  -19.344   27.382   45.576
| 40> H  -20.898   28.157   45.201
| 41> H  -19.543   28.978   47.434
| 42> H  -21.289   28.710   47.548
| 43> H  -20.733   27.082   49.195
| 44> H  -19.064   26.913   48.597
| 45> C  -23.119   27.818   46.058
| 46> H  -22.348   28.557   46.308
| 47> H  -23.350   27.912   44.989
| 48> O  -22.586   26.394   46.375
| 49> C  -24.408   28.168   46.853
| 50> C  -25.505   27.123   46.621
| 51> C  -25.052   25.979   47.561
| 52> C  -24.434   26.736   48.763
| 53> O  -24.151   28.110   48.295
| 54> H  -24.704   29.193   46.621
| 55> O  -26.881   27.687   47.071
| 56> H  -25.586   26.807   45.576
| 57> H  -25.875   25.323   47.859
| 58> H  -24.295   25.361   47.063
| 59> H  -23.503   26.277   49.114
| 60> H  -25.127   26.819   49.605
| 61> H  -26.823   28.010   48.116
| 62> *
| 63>
| 64>                          ****END OF INPUT****
 Total Charge           Charge          ....    0
 Multiplicity           Mult            ....    1
 Number of Electrons    NEL             ....  102
FINAL SINGLE POINT ENERGY      -652.823109032170
FINAL SINGLE POINT ENERGY      -652.847277154365
FINAL SINGLE POINT ENERGY      -652.855275355392
FINAL SINGLE POINT ENERGY      -652.857207584425
FINAL SINGLE POINT ENERGY      -652.857479187486
FINAL SINGLE POINT ENERGY      -652.857525136106
FINAL SINGLE POINT ENERGY      -652.857527441603
                    ***********************HURRAY********************

CARTESIAN COORDINATES (ANGSTROEM)
---------------------------------
  C    -21.158551   26.364022   46.294829
  C    -20.238317   27.537038   45.937419
  C    -20.095784   28.267076   47.303842
  C    -20.107437   27.093517   48.311911
  O    -20.682952   25.935271   47.585779
  H    -21.055427   25.495974   45.641052
  H    -19.273184   27.129979   45.619482
  H    -20.618267   28.175592   45.135242
  H    -19.172801   28.851970   47.362982
  H    -20.934901   28.942941   47.489226
  H    -20.720191   27.297587   49.193387
  H    -19.102710   26.798306   48.627021
  C    -23.181427   27.923443   46.051819
  H    -22.514816   28.749509   46.311823
  H    -23.413773   27.992902   44.978275
  O    -22.583752   26.633847   46.347770
  C    -24.461809   28.087997   46.870071
  C    -25.573504   27.051095   46.655105
  C    -25.106521   25.893086   47.577611
  C    -24.455508   26.634928   48.770458
  O    -24.172461   28.016774   48.302258
  H    -24.852286   29.094074   46.672231
  O    -26.862809   27.598360   47.052763
  H    -25.699597   26.751737   45.614338
  H    -25.955372   25.270409   47.875066
  H    -24.364948   25.287487   47.056701
  H    -23.513449   26.172610   49.073199
  H    -25.118689   26.721233   49.637797
  H    -26.780759   27.986236   47.949544

 Multiplicity           Mult            ....    1
 Number of Electrons    NEL             ....  102
 Basis Dimension        Dim             ....  149

ORBITAL ENERGIES
----------------

  NO   OCC          E(Eh)            E(eV)
   0   2.0000     -19.144716      -520.9542
   1   2.0000     -19.141635      -520.8704
   2   2.0000     -19.134978      -520.6892
   3   2.0000     -19.131561      -520.5962
   4   2.0000     -10.284414      -279.8531
   5   2.0000     -10.236473      -278.5486
   6   2.0000     -10.232423      -278.4384
   7   2.0000     -10.231745      -278.4199
   8   2.0000     -10.227561      -278.3061
   9   2.0000     -10.216508      -278.0053
  10   2.0000     -10.197509      -277.4883
  11   2.0000     -10.194176      -277.3976
  12   2.0000     -10.169334      -276.7217
  13   2.0000      -1.054251       -28.6876
  14   2.0000      -1.028623       -27.9903
  15   2.0000      -1.001722       -27.2582
  16   2.0000      -0.992571       -27.0092
  17   2.0000      -0.792121       -21.5547
  18   2.0000      -0.778060       -21.1721
  19   2.0000      -0.760416       -20.6920
  20   2.0000      -0.733839       -19.9688
  21   2.0000      -0.677432       -18.4339
  22   2.0000      -0.608154       -16.5487
  23   2.0000      -0.599561       -16.3149
  24   2.0000      -0.591771       -16.1029
  25   2.0000      -0.567833       -15.4515
  26   2.0000      -0.527219       -14.3464
  27   2.0000      -0.508104       -13.8262
  28   2.0000      -0.500056       -13.6072
  29   2.0000      -0.485720       -13.2171
  30   2.0000      -0.472344       -12.8531
  31   2.0000      -0.458010       -12.4631
  32   2.0000      -0.446365       -12.1462
  33   2.0000      -0.437283       -11.8991
  34   2.0000      -0.424969       -11.5640
  35   2.0000      -0.409034       -11.1304
  36   2.0000      -0.403294       -10.9742
  37   2.0000      -0.387421       -10.5423
  38   2.0000      -0.381908       -10.3923
  39   2.0000      -0.363688        -9.8965
  40   2.0000      -0.361444        -9.8354
  41   2.0000      -0.356256        -9.6942
  42   2.0000      -0.352926        -9.6036
  43   2.0000      -0.325370        -8.8538
  44   2.0000      -0.314789        -8.5658
  45   2.0000      -0.302406        -8.2289
  46   2.0000      -0.291220        -7.9245
  47   2.0000      -0.274935        -7.4814
  48   2.0000      -0.261576        -7.1178
  49   2.0000      -0.253456        -6.8969
  50   2.0000      -0.239055        -6.5050
  51   0.0000       0.068940         1.8760
  52   0.0000       0.080426         2.1885
  53   0.0000       0.094017         2.5583
  54   0.0000       0.105625         2.8742
  55   0.0000       0.108127         2.9423

MULLIKEN ATOMIC CHARGES
-----------------------
   0 C :    0.326213
   1 C :   -0.306747
   2 C :   -0.313850
   3 C :   -0.005058
   4 O :   -0.499679
   5 H :    0.157929
   6 H :    0.157946
   7 H :    0.148880
   8 H :    0.145948
   9 H :    0.169441
  10 H :    0.158215
  11 H :    0.144032
  12 C :    0.006464
  13 H :    0.138226
  14 H :    0.127735
  15 O :   -0.540532
  16 C :    0.071786
  17 C :    0.077424
  18 C :   -0.283042
  19 C :   -0.029494
  20 O :   -0.533296
  21 H :    0.150403
  22 O :   -0.604310
  23 H :    0.149361
  24 H :    0.144576
  25 H :    0.183276
  26 H :    0.164034
  27 H :    0.132310
  28 H :    0.361809
Sum of atomic charges:    0.0000000

LOEWDIN ATOMIC CHARGES
----------------------
   0 C :    0.183432
   1 C :   -0.232313
   2 C :   -0.221790
   3 C :   -0.029126
   4 O :   -0.315564
   5 H :    0.106273
   6 H :    0.123837
   7 H :    0.116247
   8 H :    0.116389
   9 H :    0.116578
  10 H :    0.110316
  11 H :    0.103529
  12 C :   -0.035568
  13 H :    0.102011
  14 H :    0.094074
  15 O :   -0.332259
  16 C :    0.014327
  17 C :    0.039641
  18 C :   -0.240624
  19 C :   -0.035593
  20 O :   -0.335266
  21 H :    0.113130
  22 O :   -0.418219
  23 H :    0.115301
  24 H :    0.116389
  25 H :    0.135014
  26 H :    0.114160
  27 H :    0.094292
  28 H :    0.281384

  Mayer bond orders larger than 0.100000
B(  0-C ,  1-C ) :   0.9339 B(  0-C ,  4-O ) :   0.9206 B(  0-C ,  5-H ) :   0.9321
B(  0-C , 15-O ) :   0.8539 B(  1-C ,  2-C ) :   0.9510 B(  1-C ,  6-H ) :   0.9339
B(  1-C ,  7-H ) :   0.9307 B(  2-C ,  3-C ) :   0.9494 B(  2-C ,  8-H ) :   0.9451
B(  2-C ,  9-H ) :   0.9321 B(  3-C ,  4-O ) :   0.8398 B(  3-C , 10-H ) :   0.9321
B(  3-C , 11-H ) :   0.9396 B( 12-C , 13-H ) :   0.9027 B( 12-C , 14-H ) :   0.9150
B( 12-C , 15-O ) :   0.8456 B( 12-C , 16-C ) :   0.8970 B( 16-C , 17-C ) :   0.9108
B( 16-C , 20-O ) :   0.8750 B( 16-C , 21-H ) :   0.9224 B( 17-C , 18-C ) :   0.9253
B( 17-C , 22-O ) :   0.8895 B( 17-C , 23-H ) :   0.9360 B( 18-C , 19-C ) :   0.9474
B( 18-C , 24-H ) :   0.9374 B( 18-C , 25-H ) :   0.9167 B( 19-C , 20-O ) :   0.8317
B( 19-C , 26-H ) :   0.9294 B( 19-C , 27-H ) :   0.9372 B( 22-O , 28-H ) :   0.7964

FINAL SINGLE POINT ENERGY      -652.857512282993

DIPOLE MOMENT
-------------
                                X             Y             Z
Electronic contribution:     -3.49445      -1.43969       0.09132
Nuclear contribution   :      4.60322       2.03155      -0.45648
                        -----------------------------------------
Total Dipole Moment    :      1.10877       0.59186      -0.36517
                        -----------------------------------------
Magnitude (a.u.)       :      1.30882
Magnitude (Debye)      :      3.32676

Rotational constants in cm-1:     0.057104     0.015346     0.014706
Rotational constants in MHz :  1711.935319   460.049938   440.885516

                             ****ORCA TERMINATED NORMALLY****
TOTAL RUN TIME: 0 days 0 hours 58 minutes 37 seconds 1 msec
