                         Program Version 4.2.0 -  RELEASE  -
|  1> # Test redundant internal optimization
|  2> #
|  3> ! RKS B3LYP  Opt TightSCF SmallPrint
|  4>
|  5> %basis
|  6>         Basis "6-31G"
|  7> end
|  8>
|  9> %geom
| 10> Constraints
| 11> { D 4  0  15  12  285.0   C } # D for Dihedral angle
| 12> { D 0  15  12  16  90.0   C } # D for Dihedral angle
| 13> { D 0  4  3  2   C } # D for Dihedral angle
| 14> { D 4  3  2  1   C } # D for Dihedral angle
| 15> { D 3  2  1  0   C } # D for Dihedral angle
| 16> { D 2  1  0  4   C } # D for Dihedral angle
| 17> { D 1  0  4  3   C } # D for Dihedral angle
| 18> { D 16  20  19  18   C } # D for Dihedral angle
| 19> { D 20  19  18  17   C } # D for Dihedral angle
| 20> { D 19  18  17  16   C } # D for Dihedral angle
| 21> { D 18  17  16  20   C } # D for Dihedral angle
| 22> { D 17  16  20  19   C } # D for Dihedral angle
| 23> { D 15  12  16  20   C } # D for Dihedral angle
| 24> end
| 25> end
| 26>
| 27>
| 28> #%pal
| 29> #nprocs 8
| 30> #end
| 31>
| 32> * xyz 0 1
| 33> C  -21.048   26.222   46.251
| 34> C  -20.361   27.558   45.944
| 35> C  -20.329   28.222   47.341
| 36> C  -20.110   27.022   48.296
| 37> O  -20.473   25.807   47.535
| 38> H  -20.833   25.428   45.533
| 39> H  -19.344   27.382   45.576
| 40> H  -20.898   28.157   45.201
| 41> H  -19.543   28.978   47.434
| 42> H  -21.289   28.710   47.548
| 43> H  -20.733   27.082   49.195
| 44> H  -19.064   26.913   48.597
| 45> C  -23.396   25.070   46.435
| 46> H  -24.385   25.230   45.988
| 47> H  -22.886   24.281   45.867
| 48> O  -22.586   26.394   46.375
| 49> C  -23.594   24.553   47.887
| 50> C  -24.295   23.190   47.902
| 51> C  -23.128   22.234   47.556
| 52> C  -21.913   22.897   48.252
| 53> O  -22.297   24.299   48.523
| 54> H  -24.094   25.324   48.476
| 55> H  -24.685   22.977   48.903
| 56> O  -25.469   23.096   46.889
| 57> H  -23.300   21.210   47.904
| 58> H  -22.979   22.198   46.471
| 59> H  -21.014   22.886   47.626
| 60> H  -21.680   22.435   49.216
| 61> H  -25.102   23.304   45.878
| 62> *
| 63>
| 64>                          ****END OF INPUT****
 Total Charge           Charge          ....    0
 Multiplicity           Mult            ....    1
 Number of Electrons    NEL             ....  102
FINAL SINGLE POINT ENERGY      -652.823116801309
FINAL SINGLE POINT ENERGY      -652.848443226761
FINAL SINGLE POINT ENERGY      -652.854435142932
FINAL SINGLE POINT ENERGY      -652.856230789301
FINAL SINGLE POINT ENERGY      -652.856459085460
FINAL SINGLE POINT ENERGY      -652.856523416537
FINAL SINGLE POINT ENERGY      -652.856529533964
FINAL SINGLE POINT ENERGY      -652.856530595417
                    ***********************HURRAY********************

CARTESIAN COORDINATES (ANGSTROEM)
---------------------------------
  C    -20.982491   26.219869   46.228505
  C    -20.494949   27.639945   45.947336
  C    -20.434421   28.246593   47.369898
  C    -19.994025   27.044744   48.236069
  O    -20.273866   25.837842   47.419288
  H    -20.740226   25.462091   45.474194
  H    -19.495795   27.597361   45.497733
  H    -21.165313   28.179469   45.275657
  H    -19.739253   29.088871   47.439415
  H    -21.430040   28.590513   47.663696
  H    -20.546577   26.960447   49.174124
  H    -18.919378   27.039590   48.443390
  C    -23.227240   25.118452   46.428845
  H    -24.197934   25.397753   46.007168
  H    -22.771670   24.350169   45.780380
  O    -22.423303   26.325039   46.358766
  C    -23.474585   24.557913   47.837836
  C    -24.306935   23.265373   47.807280
  C    -23.209660   22.178348   47.579504
  C    -22.012279   22.744353   48.376239
  O    -22.286984   24.186577   48.585925
  H    -23.958923   25.342557   48.427785
  H    -24.784818   23.120556   48.778761
  O    -25.402190   23.241884   46.857446
  H    -23.528214   21.192571   47.927247
  H    -22.981098   22.102279   46.508075
  H    -21.057500   22.643843   47.852166
  H    -21.922570   22.288137   49.366499
  H    -25.065761   23.095861   45.949771

 Multiplicity           Mult            ....    1
 Number of Electrons    NEL             ....  102
 Basis Dimension        Dim             ....  149

ORBITAL ENERGIES
----------------

  NO   OCC          E(Eh)            E(eV)
   0   2.0000     -19.148407      -521.0547
   1   2.0000     -19.138996      -520.7986
   2   2.0000     -19.130930      -520.5791
   3   2.0000     -19.128730      -520.5192
   4   2.0000     -10.272255      -279.5223
   5   2.0000     -10.242620      -278.7159
   6   2.0000     -10.228708      -278.3373
   7   2.0000     -10.225597      -278.2526
   8   2.0000     -10.224825      -278.2316
   9   2.0000     -10.214566      -277.9525
  10   2.0000     -10.193174      -277.3704
  11   2.0000     -10.177167      -276.9348
  12   2.0000     -10.176889      -276.9272
  13   2.0000      -1.044693       -28.4275
  14   2.0000      -1.030654       -28.0455
  15   2.0000      -1.011977       -27.5373
  16   2.0000      -0.988606       -26.9013
  17   2.0000      -0.782270       -21.2867
  18   2.0000      -0.777527       -21.1576
  19   2.0000      -0.761041       -20.7090
  20   2.0000      -0.725562       -19.7436
  21   2.0000      -0.675258       -18.3747
  22   2.0000      -0.608872       -16.5683
  23   2.0000      -0.590484       -16.0679
  24   2.0000      -0.588366       -16.0103
  25   2.0000      -0.570873       -15.5342
  26   2.0000      -0.523860       -14.2550
  27   2.0000      -0.509596       -13.8668
  28   2.0000      -0.492284       -13.3957
  29   2.0000      -0.479968       -13.0606
  30   2.0000      -0.461743       -12.5647
  31   2.0000      -0.452501       -12.3132
  32   2.0000      -0.444652       -12.0996
  33   2.0000      -0.426485       -11.6052
  34   2.0000      -0.419604       -11.4180
  35   2.0000      -0.415961       -11.3189
  36   2.0000      -0.402664       -10.9570
  37   2.0000      -0.391619       -10.6565
  38   2.0000      -0.378559       -10.3011
  39   2.0000      -0.364365        -9.9149
  40   2.0000      -0.347826        -9.4648
  41   2.0000      -0.347219        -9.4483
  42   2.0000      -0.338631        -9.2146
  43   2.0000      -0.328912        -8.9501
  44   2.0000      -0.317481        -8.6391
  45   2.0000      -0.311116        -8.4659
  46   2.0000      -0.288867        -7.8605
  47   2.0000      -0.268366        -7.3026
  48   2.0000      -0.266064        -7.2400
  49   2.0000      -0.251076        -6.8321
  50   2.0000      -0.223972        -6.0946
  51   0.0000       0.052995         1.4421
  52   0.0000       0.077538         2.1099
  53   0.0000       0.091820         2.4985
  54   0.0000       0.101314         2.7569
  55   0.0000       0.110921         3.0183

MULLIKEN ATOMIC CHARGES
-----------------------
   0 C :    0.299009
   1 C :   -0.264267
   2 C :   -0.298373
   3 C :   -0.002843
   4 O :   -0.491671
   5 H :    0.130333
   6 H :    0.140769
   7 H :    0.153877
   8 H :    0.136776
   9 H :    0.161190
  10 H :    0.157043
  11 H :    0.137376
  12 C :   -0.017716
  13 H :    0.155065
  14 H :    0.105123
  15 O :   -0.521328
  16 C :    0.101959
  17 C :    0.080971
  18 C :   -0.322903
  19 C :   -0.006262
  20 O :   -0.494971
  21 H :    0.156335
  22 H :    0.166485
  23 O :   -0.601836
  24 H :    0.154313
  25 H :    0.132628
  26 H :    0.151074
  27 H :    0.146447
  28 H :    0.355396
Sum of atomic charges:   -0.0000000

LOEWDIN ATOMIC CHARGES
----------------------
   0 C :    0.175003
   1 C :   -0.216556
   2 C :   -0.216497
   3 C :   -0.027036
   4 O :   -0.311571
   5 H :    0.090364
   6 H :    0.111289
   7 H :    0.121919
   8 H :    0.111284
   9 H :    0.118622
  10 H :    0.110755
  11 H :    0.100059
  12 C :   -0.050056
  13 H :    0.116332
  14 H :    0.082201
  15 O :   -0.324322
  16 C :    0.011338
  17 C :    0.033418
  18 C :   -0.241843
  19 C :   -0.027884
  20 O :   -0.304901
  21 H :    0.115216
  22 H :    0.118687
  23 O :   -0.409098
  24 H :    0.121437
  25 H :    0.102869
  26 H :    0.106998
  27 H :    0.104551
  28 H :    0.277422

  Mayer bond orders larger than 0.100000
B(  0-C ,  1-C ) :   0.9469 B(  0-C ,  4-O ) :   0.9318 B(  0-C ,  5-H ) :   0.9214
B(  0-C , 15-O ) :   0.8489 B(  1-C ,  2-C ) :   0.9600 B(  1-C ,  6-H ) :   0.9413
B(  1-C ,  7-H ) :   0.9368 B(  2-C ,  3-C ) :   0.9546 B(  2-C ,  8-H ) :   0.9454
B(  2-C ,  9-H ) :   0.9444 B(  3-C ,  4-O ) :   0.8368 B(  3-C , 10-H ) :   0.9324
B(  3-C , 11-H ) :   0.9405 B( 12-C , 13-H ) :   0.9207 B( 12-C , 14-H ) :   0.9216
B( 12-C , 15-O ) :   0.8645 B( 12-C , 16-C ) :   0.8829 B( 16-C , 17-C ) :   0.8662
B( 16-C , 20-O ) :   0.8821 B( 16-C , 21-H ) :   0.9314 B( 17-C , 18-C ) :   0.9241
B( 17-C , 22-H ) :   0.9335 B( 17-C , 23-O ) :   0.8939 B( 18-C , 19-C ) :   0.9382
B( 18-C , 24-H ) :   0.9425 B( 18-C , 25-H ) :   0.9403 B( 19-C , 20-O ) :   0.8479
B( 19-C , 26-H ) :   0.9292 B( 19-C , 27-H ) :   0.9381 B( 23-O , 28-H ) :   0.7987

FINAL SINGLE POINT ENERGY      -652.856530563291

DIPOLE MOMENT
-------------
                                X             Y             Z
Electronic contribution:     -2.45839      -1.04321       0.61024
Nuclear contribution   :      2.89125       0.68170      -1.19243
                        -----------------------------------------
Total Dipole Moment    :      0.43286      -0.36151      -0.58219
                        -----------------------------------------
Magnitude (a.u.)       :      0.81056
Magnitude (Debye)      :      2.06028

Rotational constants in cm-1:     0.055706     0.015033     0.013211
Rotational constants in MHz :  1670.035122   450.681192   396.056924

                             ****ORCA TERMINATED NORMALLY****
TOTAL RUN TIME: 0 days 1 hours 26 minutes 12 seconds 330 msec
