                         Program Version 4.2.0 -  RELEASE  -
|  1> # Test redundant internal optimization
|  2> #
|  3> ! RKS B3LYP  Opt TightSCF SmallPrint
|  4>
|  5> %basis
|  6>         Basis "6-31G"
|  7> end
|  8>
|  9> %geom
| 10> Constraints
| 11> { D 4  0  15  12  75.0   C } # D for Dihedral angle
| 12> { D 0  15  12  16  75.0   C } # D for Dihedral angle
| 13> { D 0  4  3  2   C } # D for Dihedral angle
| 14> { D 4  3  2  1   C } # D for Dihedral angle
| 15> { D 3  2  1  0   C } # D for Dihedral angle
| 16> { D 2  1  0  4   C } # D for Dihedral angle
| 17> { D 1  0  4  3   C } # D for Dihedral angle
| 18> { D 16  20  19  18   C } # D for Dihedral angle
| 19> { D 20  19  18  17   C } # D for Dihedral angle
| 20> { D 19  18  17  16   C } # D for Dihedral angle
| 21> { D 18  17  16  20   C } # D for Dihedral angle
| 22> { D 17  16  20  19   C } # D for Dihedral angle
| 23> { D 15  12  16  20   C } # D for Dihedral angle
| 24> end
| 25> end
| 26>
| 27>
| 28> #%pal
| 29> #nprocs 8
| 30> #end
| 31>
| 32> * xyz 0 1
| 33> C  -21.048   26.222   46.251
| 34> C  -20.361   27.558   45.944
| 35> C  -20.329   28.222   47.341
| 36> C  -20.110   27.022   48.296
| 37> O  -20.473   25.807   47.535
| 38> H  -20.833   25.428   45.533
| 39> H  -19.344   27.382   45.576
| 40> H  -20.898   28.157   45.201
| 41> H  -19.543   28.978   47.434
| 42> H  -21.289   28.710   47.548
| 43> H  -20.733   27.082   49.195
| 44> H  -19.064   26.913   48.597
| 45> C  -23.049   27.675   47.122
| 46> H  -24.106   27.570   47.398
| 47> H  -22.466   27.815   48.042
| 48> O  -22.586   26.394   46.375
| 49> C  -22.894   28.960   46.263
| 50> C  -23.810   28.923   45.035
| 51> C  -25.175   29.314   45.650
| 52> C  -24.786   30.333   46.750
| 53> O  -23.345   30.136   47.015
| 54> H  -21.837   29.112   46.035
| 55> O  -23.352   29.984   43.997
| 56> H  -23.830   27.946   44.541
| 57> H  -25.866   29.737   44.914
| 58> H  -25.654   28.432   46.091
| 59> H  -25.345   30.180   47.679
| 60> H  -24.916   31.368   46.425
| 61> H  -23.325   30.974   44.469
| 62> *
| 63>
| 64>                          ****END OF INPUT****
 Total Charge           Charge          ....    0
 Multiplicity           Mult            ....    1
 Number of Electrons    NEL             ....  102
FINAL SINGLE POINT ENERGY      -652.795241125190
FINAL SINGLE POINT ENERGY      -652.832927239830
FINAL SINGLE POINT ENERGY      -652.851526671731
FINAL SINGLE POINT ENERGY      -652.854900457125
FINAL SINGLE POINT ENERGY      -652.855347070008
FINAL SINGLE POINT ENERGY      -652.855443422044
FINAL SINGLE POINT ENERGY      -652.855454976207
FINAL SINGLE POINT ENERGY      -652.855456002472
                    ***********************HURRAY********************

CARTESIAN COORDINATES (ANGSTROEM)
---------------------------------
  C    -21.178792   26.327325   46.411569
  C    -20.218744   27.428628   45.935425
  C    -19.863944   28.154910   47.269046
  C    -19.847607   26.984022   48.285812
  O    -20.585995   25.871374   47.648111
  H    -21.185073   25.460137   45.749966
  H    -19.328017   26.942948   45.523580
  H    -20.641583   28.078735   45.166526
  H    -18.896253   28.663088   47.217625
  H    -20.613982   28.902673   47.536704
  H    -20.328376   27.233310   49.236481
  H    -18.834727   26.621531   48.484591
  C    -23.187772   27.760227   47.167001
  H    -24.236040   27.481122   47.299241
  H    -22.759034   27.917884   48.165398
  O    -22.595530   26.597619   46.517982
  C    -23.080707   29.068094   46.371723
  C    -23.823650   29.068324   45.028207
  C    -25.285248   29.315847   45.479843
  C    -25.127976   30.266911   46.692787
  O    -23.715071   30.147302   47.140136
  H    -22.042972   29.367977   46.231359
  O    -23.325265   30.123318   44.159086
  H    -23.693672   28.141803   44.470254
  H    -25.871685   29.754327   44.668052
  H    -25.757140   28.371033   45.769424
  H    -25.787479   30.008075   47.526900
  H    -25.292912   31.316602   46.430560
  H    -23.261753   30.958853   44.668612

 Multiplicity           Mult            ....    1
 Number of Electrons    NEL             ....  102
 Basis Dimension        Dim             ....  149

ORBITAL ENERGIES
----------------

  NO   OCC          E(Eh)            E(eV)
   0   2.0000     -19.150357      -521.1077
   1   2.0000     -19.145320      -520.9706
   2   2.0000     -19.142553      -520.8954
   3   2.0000     -19.140503      -520.8396
   4   2.0000     -10.279875      -279.7296
   5   2.0000     -10.241664      -278.6899
   6   2.0000     -10.236534      -278.5502
   7   2.0000     -10.236475      -278.5486
   8   2.0000     -10.234154      -278.4855
   9   2.0000     -10.228694      -278.3369
  10   2.0000     -10.193718      -277.3852
  11   2.0000     -10.192629      -277.3555
  12   2.0000     -10.192358      -277.3482
  13   2.0000      -1.051263       -28.6063
  14   2.0000      -1.040377       -28.3101
  15   2.0000      -1.010185       -27.4885
  16   2.0000      -0.996032       -27.1034
  17   2.0000      -0.789196       -21.4751
  18   2.0000      -0.785674       -21.3793
  19   2.0000      -0.773274       -21.0419
  20   2.0000      -0.737037       -20.0558
  21   2.0000      -0.681331       -18.5400
  22   2.0000      -0.610072       -16.6009
  23   2.0000      -0.606435       -16.5019
  24   2.0000      -0.603582       -16.4243
  25   2.0000      -0.575825       -15.6690
  26   2.0000      -0.532082       -14.4787
  27   2.0000      -0.506952       -13.7949
  28   2.0000      -0.501967       -13.6592
  29   2.0000      -0.493224       -13.4213
  30   2.0000      -0.475414       -12.9367
  31   2.0000      -0.463383       -12.6093
  32   2.0000      -0.449795       -12.2395
  33   2.0000      -0.437945       -11.9171
  34   2.0000      -0.430984       -11.7277
  35   2.0000      -0.415887       -11.3169
  36   2.0000      -0.412062       -11.2128
  37   2.0000      -0.397881       -10.8269
  38   2.0000      -0.386546       -10.5185
  39   2.0000      -0.371962       -10.1216
  40   2.0000      -0.361952        -9.8492
  41   2.0000      -0.359166        -9.7734
  42   2.0000      -0.350347        -9.5334
  43   2.0000      -0.336827        -9.1655
  44   2.0000      -0.314975        -8.5709
  45   2.0000      -0.314556        -8.5595
  46   2.0000      -0.301017        -8.1911
  47   2.0000      -0.280476        -7.6321
  48   2.0000      -0.271362        -7.3841
  49   2.0000      -0.256675        -6.9845
  50   2.0000      -0.243492        -6.6257
  51   0.0000       0.058929         1.6036
  52   0.0000       0.067812         1.8453
  53   0.0000       0.083578         2.2743
  54   0.0000       0.093891         2.5549
  55   0.0000       0.101466         2.7610

MULLIKEN ATOMIC CHARGES
-----------------------
   0 C :    0.307190
   1 C :   -0.294779
   2 C :   -0.324962
   3 C :   -0.010170
   4 O :   -0.502831
   5 H :    0.167617
   6 H :    0.157866
   7 H :    0.161753
   8 H :    0.148439
   9 H :    0.162016
  10 H :    0.146633
  11 H :    0.146791
  12 C :   -0.022108
  13 H :    0.156338
  14 H :    0.149958
  15 O :   -0.521622
  16 C :    0.040982
  17 C :    0.088819
  18 C :   -0.306839
  19 C :   -0.033128
  20 O :   -0.528951
  21 H :    0.163978
  22 O :   -0.605208
  23 H :    0.172256
  24 H :    0.165512
  25 H :    0.153622
  26 H :    0.150766
  27 H :    0.147611
  28 H :    0.362450
Sum of atomic charges:   -0.0000000

LOEWDIN ATOMIC CHARGES
----------------------
   0 C :    0.177026
   1 C :   -0.233916
   2 C :   -0.226891
   3 C :   -0.032456
   4 O :   -0.318788
   5 H :    0.114312
   6 H :    0.124319
   7 H :    0.121531
   8 H :    0.117631
   9 H :    0.113108
  10 H :    0.102904
  11 H :    0.103861
  12 C :   -0.041800
  13 H :    0.115243
  14 H :    0.105497
  15 O :   -0.322540
  16 C :   -0.002562
  17 C :    0.036263
  18 C :   -0.241823
  19 C :   -0.038820
  20 O :   -0.331192
  21 H :    0.112768
  22 O :   -0.415853
  23 H :    0.125146
  24 H :    0.128025
  25 H :    0.117913
  26 H :    0.106062
  27 H :    0.103166
  28 H :    0.281864

  Mayer bond orders larger than 0.100000
B(  0-C ,  1-C ) :   0.9172 B(  0-C ,  4-O ) :   0.9042 B(  0-C ,  5-H ) :   0.9356
B(  0-C , 15-O ) :   0.8939 B(  1-C ,  2-C ) :   0.9535 B(  1-C ,  6-H ) :   0.9319
B(  1-C ,  7-H ) :   0.9268 B(  2-C ,  3-C ) :   0.9435 B(  2-C ,  8-H ) :   0.9453
B(  2-C ,  9-H ) :   0.9308 B(  3-C ,  4-O ) :   0.8463 B(  3-C , 10-H ) :   0.9336
B(  3-C , 11-H ) :   0.9386 B( 12-C , 13-H ) :   0.9393 B( 12-C , 14-H ) :   0.9151
B( 12-C , 15-O ) :   0.8451 B( 12-C , 16-C ) :   0.8730 B( 16-C , 17-C ) :   0.9057
B( 16-C , 20-O ) :   0.8349 B( 16-C , 21-H ) :   0.9106 B( 17-C , 18-C ) :   0.9151
B( 17-C , 22-O ) :   0.8887 B( 17-C , 23-H ) :   0.9249 B( 18-C , 19-C ) :   0.9410
B( 18-C , 24-H ) :   0.9367 B( 18-C , 25-H ) :   0.9325 B( 19-C , 20-O ) :   0.8417
B( 19-C , 26-H ) :   0.9349 B( 19-C , 27-H ) :   0.9378 B( 22-O , 28-H ) :   0.7969

FINAL SINGLE POINT ENERGY      -652.855454698041

DIPOLE MOMENT
-------------
                                X             Y             Z
Electronic contribution:     -0.73226      -2.15080      -0.55008
Nuclear contribution   :      0.68920       2.97132       0.66557
                        -----------------------------------------
Total Dipole Moment    :     -0.04306       0.82051       0.11550
                        -----------------------------------------
Magnitude (a.u.)       :      0.82972
Magnitude (Debye)      :      2.10898

Rotational constants in cm-1:     0.052562     0.014576     0.014285
Rotational constants in MHz :  1575.769612   436.990500   428.255964

                             ****ORCA TERMINATED NORMALLY****
TOTAL RUN TIME: 0 days 0 hours 51 minutes 15 seconds 238 msec
