                         Program Version 4.2.0 -  RELEASE  -
|  1> # Test redundant internal optimization
|  2> #
|  3> ! RKS B3LYP  Opt TightSCF SmallPrint
|  4>
|  5> %basis
|  6>         Basis "6-31G"
|  7> end
|  8>
|  9> %geom
| 10> Constraints
| 11> { D 4  0  15  12  180.0   C } # D for Dihedral angle
| 12> { D 0  15  12  16  105.0   C } # D for Dihedral angle
| 13> { D 0  4  3  2   C } # D for Dihedral angle
| 14> { D 4  3  2  1   C } # D for Dihedral angle
| 15> { D 3  2  1  0   C } # D for Dihedral angle
| 16> { D 2  1  0  4   C } # D for Dihedral angle
| 17> { D 1  0  4  3   C } # D for Dihedral angle
| 18> { D 16  20  19  18   C } # D for Dihedral angle
| 19> { D 20  19  18  17   C } # D for Dihedral angle
| 20> { D 19  18  17  16   C } # D for Dihedral angle
| 21> { D 18  17  16  20   C } # D for Dihedral angle
| 22> { D 17  16  20  19   C } # D for Dihedral angle
| 23> { D 15  12  16  20   C } # D for Dihedral angle
| 24> end
| 25> end
| 26>
| 27>
| 28> #%pal
| 29> #nprocs 8
| 30> #end
| 31>
| 32> * xyz 0 1
| 33> C  -21.048   26.222   46.251
| 34> C  -20.361   27.558   45.944
| 35> C  -20.329   28.222   47.341
| 36> C  -20.110   27.022   48.296
| 37> O  -20.473   25.807   47.535
| 38> H  -20.833   25.428   45.533
| 39> H  -19.344   27.382   45.576
| 40> H  -20.898   28.157   45.201
| 41> H  -19.543   28.978   47.434
| 42> H  -21.289   28.710   47.548
| 43> H  -20.733   27.082   49.195
| 44> H  -19.064   26.913   48.597
| 45> C  -23.309   26.834   45.072
| 46> H  -24.019   27.637   45.305
| 47> H  -22.584   27.217   44.342
| 48> O  -22.586   26.394   46.375
| 49> C  -24.090   25.672   44.397
| 50> C  -24.692   26.111   43.058
| 51> C  -23.463   26.035   42.121
| 52> C  -22.677   24.819   42.671
| 53> O  -23.178   24.580   44.042
| 54> H  -24.813   25.267   45.108
| 55> H  -25.465   25.401   42.742
| 56> O  -25.323   27.529   43.109
| 57> H  -23.739   25.911   41.069
| 58> H  -22.867   26.951   42.206
| 59> H  -21.597   25.001   42.711
| 60> H  -22.861   23.907   42.097
| 61> H  -24.569   28.258   43.422
| 62> *
| 63>
| 64>                          ****END OF INPUT****
 Total Charge           Charge          ....    0
 Multiplicity           Mult            ....    1
 Number of Electrons    NEL             ....  102
FINAL SINGLE POINT ENERGY      -652.825273292345
FINAL SINGLE POINT ENERGY      -652.848620619251
FINAL SINGLE POINT ENERGY      -652.853087018751
FINAL SINGLE POINT ENERGY      -652.853763470091
FINAL SINGLE POINT ENERGY      -652.853880122956
FINAL SINGLE POINT ENERGY      -652.853910952193
FINAL SINGLE POINT ENERGY      -652.853916622106
FINAL SINGLE POINT ENERGY      -652.853917717968
                    ***********************HURRAY********************

CARTESIAN COORDINATES (ANGSTROEM)
---------------------------------
  C    -21.021454   26.262414   46.174354
  C    -20.269658   27.578216   45.979357
  C    -20.343523   28.206622   47.395012
  C    -20.252011   26.972651   48.316438
  O    -20.588640   25.806461   47.460959
  H    -20.807195   25.472793   45.450906
  H    -19.231442   27.355356   45.705562
  H    -20.690670   28.225961   45.205374
  H    -19.539605   28.926140   47.576721
  H    -21.302715   28.716528   47.525353
  H    -20.954449   27.005687   49.152773
  H    -19.240916   26.799622   48.696965
  C    -23.162903   26.923542   45.077146
  H    -23.867911   27.698110   45.399089
  H    -22.461303   27.369934   44.357003
  O    -22.468038   26.457421   46.264335
  C    -23.933711   25.764520   44.444890
  C    -24.689765   26.108877   43.150295
  C    -23.560944   25.997252   42.083295
  C    -22.695352   24.835429   42.619059
  O    -23.040629   24.671762   44.055942
  H    -24.593132   25.345989   45.210015
  H    -25.461495   25.357919   42.970018
  O    -25.403554   27.368924   43.163309
  H    -23.954306   25.807932   41.081323
  H    -22.993843   26.937343   42.050338
  H    -21.620825   25.025385   42.527237
  H    -22.926042   23.886478   42.125868
  H    -24.780969   28.119734   43.079064

 Multiplicity           Mult            ....    1
 Number of Electrons    NEL             ....  102
 Basis Dimension        Dim             ....  149

ORBITAL ENERGIES
----------------

  NO   OCC          E(Eh)            E(eV)
   0   2.0000     -19.152646      -521.1700
   1   2.0000     -19.141850      -520.8762
   2   2.0000     -19.135474      -520.7027
   3   2.0000     -19.133962      -520.6616
   4   2.0000     -10.272919      -279.5403
   5   2.0000     -10.247367      -278.8450
   6   2.0000     -10.234994      -278.5083
   7   2.0000     -10.232289      -278.4347
   8   2.0000     -10.229493      -278.3586
   9   2.0000     -10.221397      -278.1383
  10   2.0000     -10.199514      -277.5429
  11   2.0000     -10.187080      -277.2046
  12   2.0000     -10.185657      -277.1658
  13   2.0000      -1.048804       -28.5394
  14   2.0000      -1.035834       -28.1865
  15   2.0000      -1.018513       -27.7151
  16   2.0000      -0.987707       -26.8769
  17   2.0000      -0.786362       -21.3980
  18   2.0000      -0.784297       -21.3418
  19   2.0000      -0.767997       -20.8983
  20   2.0000      -0.729785       -19.8585
  21   2.0000      -0.683456       -18.5978
  22   2.0000      -0.615133       -16.7386
  23   2.0000      -0.600704       -16.3460
  24   2.0000      -0.590710       -16.0740
  25   2.0000      -0.572350       -15.5744
  26   2.0000      -0.531299       -14.4574
  27   2.0000      -0.507234       -13.8025
  28   2.0000      -0.502975       -13.6866
  29   2.0000      -0.491030       -13.3616
  30   2.0000      -0.470109       -12.7923
  31   2.0000      -0.458531       -12.4773
  32   2.0000      -0.445557       -12.1242
  33   2.0000      -0.439542       -11.9605
  34   2.0000      -0.430971       -11.7273
  35   2.0000      -0.416440       -11.3319
  36   2.0000      -0.407464       -11.0876
  37   2.0000      -0.397166       -10.8074
  38   2.0000      -0.382940       -10.4203
  39   2.0000      -0.373282       -10.1575
  40   2.0000      -0.361449        -9.8355
  41   2.0000      -0.352905        -9.6030
  42   2.0000      -0.349922        -9.5219
  43   2.0000      -0.333164        -9.0659
  44   2.0000      -0.318303        -8.6615
  45   2.0000      -0.308904        -8.4057
  46   2.0000      -0.297901        -8.1063
  47   2.0000      -0.273351        -7.4382
  48   2.0000      -0.264017        -7.1843
  49   2.0000      -0.253423        -6.8960
  50   2.0000      -0.233523        -6.3545
  51   0.0000       0.045665         1.2426
  52   0.0000       0.067228         1.8294
  53   0.0000       0.085753         2.3335
  54   0.0000       0.095657         2.6030
  55   0.0000       0.101908         2.7731

MULLIKEN ATOMIC CHARGES
-----------------------
   0 C :    0.302527
   1 C :   -0.282409
   2 C :   -0.297903
   3 C :    0.000833
   4 O :   -0.499279
   5 H :    0.162282
   6 H :    0.146946
   7 H :    0.136047
   8 H :    0.140521
   9 H :    0.156881
  10 H :    0.154615
  11 H :    0.140082
  12 C :   -0.039979
  13 H :    0.151942
  14 H :    0.108318
  15 O :   -0.502309
  16 C :    0.099286
  17 C :    0.084416
  18 C :   -0.318443
  19 C :   -0.018902
  20 O :   -0.507150
  21 H :    0.171859
  22 H :    0.169892
  23 O :   -0.597750
  24 H :    0.158629
  25 H :    0.128794
  26 H :    0.142282
  27 H :    0.153886
  28 H :    0.354087
Sum of atomic charges:   -0.0000000

LOEWDIN ATOMIC CHARGES
----------------------
   0 C :    0.182746
   1 C :   -0.234682
   2 C :   -0.217214
   3 C :   -0.025245
   4 O :   -0.299163
   5 H :    0.107442
   6 H :    0.115165
   7 H :    0.108989
   8 H :    0.113326
   9 H :    0.116101
  10 H :    0.109658
  11 H :    0.101615
  12 C :   -0.054737
  13 H :    0.112179
  14 H :    0.084149
  15 O :   -0.326473
  16 C :    0.014121
  17 C :    0.034411
  18 C :   -0.240508
  19 C :   -0.033092
  20 O :   -0.317016
  21 H :    0.123403
  22 H :    0.120802
  23 O :   -0.406478
  24 H :    0.123312
  25 H :    0.101458
  26 H :    0.100682
  27 H :    0.108113
  28 H :    0.276936

  Mayer bond orders larger than 0.100000
B(  0-C ,  1-C ) :   0.9272 B(  0-C ,  4-O ) :   0.9358 B(  0-C ,  5-H ) :   0.9142
B(  0-C , 15-O ) :   0.8255 B(  1-C ,  2-C ) :   0.9494 B(  1-C ,  6-H ) :   0.9341
B(  1-C ,  7-H ) :   0.9314 B(  2-C ,  3-C ) :   0.9567 B(  2-C ,  8-H ) :   0.9451
B(  2-C ,  9-H ) :   0.9453 B(  3-C ,  4-O ) :   0.8378 B(  3-C , 10-H ) :   0.9343
B(  3-C , 11-H ) :   0.9398 B( 12-C , 13-H ) :   0.9201 B( 12-C , 14-H ) :   0.9161
B( 12-C , 15-O ) :   0.8691 B( 12-C , 16-C ) :   0.8909 B( 16-C , 17-C ) :   0.8680
B( 16-C , 20-O ) :   0.8615 B( 16-C , 21-H ) :   0.9290 B( 17-C , 18-C ) :   0.9197
B( 17-C , 22-H ) :   0.9317 B( 17-C , 23-O ) :   0.8998 B( 18-C , 19-C ) :   0.9394
B( 18-C , 24-H ) :   0.9419 B( 18-C , 25-H ) :   0.9413 B( 19-C , 20-O ) :   0.8494
B( 19-C , 26-H ) :   0.9312 B( 19-C , 27-H ) :   0.9374 B( 23-O , 28-H ) :   0.7995

FINAL SINGLE POINT ENERGY      -652.853917705740

DIPOLE MOMENT
-------------
                                X             Y             Z
Electronic contribution:     -3.43498      -4.14267       1.82002
Nuclear contribution   :      4.20707       5.47644      -3.04412
                        -----------------------------------------
Total Dipole Moment    :      0.77209       1.33378      -1.22410
                        -----------------------------------------
Magnitude (a.u.)       :      1.96812
Magnitude (Debye)      :      5.00257

Rotational constants in cm-1:     0.057007     0.012963     0.012104
Rotational constants in MHz :  1709.027426   388.608905   362.860349

                             ****ORCA TERMINATED NORMALLY****
TOTAL RUN TIME: 0 days 0 hours 31 minutes 31 seconds 442 msec
