                         Program Version 4.2.1 -  RELEASE  -
|  1> # Test redundant internal optimization
|  2> #
|  3> ! RKS B3LYP  Opt TightSCF SmallPrint
|  4>
|  5> %basis
|  6>         Basis "6-31G"
|  7> end
|  8>
|  9> %geom
| 10> Constraints
| 11> { D 4  0  19  14  210.0   C } # D for Dihedral angle
| 12> { D 0  19  14  12  210.0   C } # D for Dihedral angle
| 13> { D 0  4  3  2   C } # D for Dihedral angle
| 14> { D 4  3  2  1   C } # D for Dihedral angle
| 15> { D 3  2  1  0   C } # D for Dihedral angle
| 16> { D 2  1  0  4   C } # D for Dihedral angle
| 17> { D 1  0  4  3   C } # D for Dihedral angle
| 18> { D 14  15  16  17   C } # D for Dihedral angle
| 19> { D 15  16  17  12   C } # D for Dihedral angle
| 20> { D 16  17  12  14   C } # D for Dihedral angle
| 21> { D 17  12  14  15   C } # D for Dihedral angle
| 22> { D 12  14  15  16   C } # D for Dihedral angle
| 23> end
| 24> end
| 25>
| 26>
| 27> #%pal
| 28> #nprocs 8
| 29> #end
| 30>
| 31> * xyz 0 1
| 32> C  -21.048   26.222   46.251
| 33> C  -20.361   27.558   45.944
| 34> C  -20.329   28.222   47.341
| 35> C  -20.110   27.022   48.296
| 36> O  -20.473   25.807   47.535
| 37> H  -20.833   25.428   45.533
| 38> H  -19.344   27.382   45.576
| 39> H  -20.898   28.157   45.201
| 40> H  -19.543   28.978   47.434
| 41> H  -21.289   28.710   47.548
| 42> H  -20.733   27.082   49.195
| 43> H  -19.064   26.913   48.597
| 44> C  -24.472   26.965   45.108
| 45> H  -25.182   26.583   44.357
| 46> C  -23.197   26.114   45.155
| 47> C  -22.422   26.642   43.926
| 48> C  -22.785   28.148   43.900
| 49> O  -24.000   28.302   44.730
| 50> H  -24.984   27.066   46.066
| 51> O  -22.472   26.381   46.366
| 52> H  -23.397   25.038   45.102
| 53> H  -21.343   26.474   44.000
| 54> H  -22.776   26.145   43.014
| 55> H  -22.993   28.514   42.889
| 56> H  -22.007   28.773   44.350
| 57> *
| 58>
| 59>                          ****END OF INPUT****
 Total Charge           Charge          ....    0
 Multiplicity           Mult            ....    1
 Number of Electrons    NEL             ....   86
FINAL SINGLE POINT ENERGY      -538.410967604015
FINAL SINGLE POINT ENERGY      -538.424448332429
FINAL SINGLE POINT ENERGY      -538.425782409786
FINAL SINGLE POINT ENERGY      -538.426017976491
FINAL SINGLE POINT ENERGY      -538.426050590124
FINAL SINGLE POINT ENERGY      -538.426060531982
                    ***********************HURRAY********************

CARTESIAN COORDINATES (ANGSTROEM)
---------------------------------
  C    -20.876395   26.238775   46.234606
  C    -20.193000   27.593608   46.051729
  C    -20.340406   28.222035   47.460684
  C    -20.206289   26.999060   48.392805
  O    -20.453395   25.811010   47.539474
  H    -20.576619   25.459601   45.526542
  H    -19.135448   27.429607   45.809082
  H    -20.638743   28.205835   45.268881
  H    -19.585257   28.987517   47.660871
  H    -21.332348   28.673316   47.554218
  H    -20.932806   26.998684   49.209390
  H    -19.198245   26.885884   48.803514
  C    -24.384667   27.029956   45.221357
  H    -25.214531   26.630460   44.621491
  C    -23.144763   26.144568   45.088723
  C    -22.582053   26.603304   43.732965
  C    -22.904379   28.118122   43.699143
  O    -23.956693   28.341166   44.715326
  H    -24.696159   27.159373   46.257692
  O    -22.325150   26.365708   46.277253
  H    -23.407331   25.077636   45.059296
  H    -21.517160   26.392045   43.601479
  H    -23.122193   26.072241   42.941951
  H    -23.278457   28.437975   42.719488
  H    -22.052511   28.748517   43.966040

 Multiplicity           Mult            ....    1
 Number of Electrons    NEL             ....   86
 Basis Dimension        Dim             ....  127

ORBITAL ENERGIES
----------------

  NO   OCC          E(Eh)            E(eV)
   0   2.0000     -19.136690      -520.7358
   1   2.0000     -19.136162      -520.7214
   2   2.0000     -19.132951      -520.6341
   3   2.0000     -10.279573      -279.7214
   4   2.0000     -10.243123      -278.7296
   5   2.0000     -10.228518      -278.3321
   6   2.0000     -10.222710      -278.1741
   7   2.0000     -10.221341      -278.1368
   8   2.0000     -10.196337      -277.4564
   9   2.0000     -10.184133      -277.1243
  10   2.0000     -10.182167      -277.0709
  11   2.0000      -1.050495       -28.5854
  12   2.0000      -1.016477       -27.6597
  13   2.0000      -0.986642       -26.8479
  14   2.0000      -0.789243       -21.4764
  15   2.0000      -0.781303       -21.2603
  16   2.0000      -0.748400       -20.3650
  17   2.0000      -0.720082       -19.5944
  18   2.0000      -0.616779       -16.7834
  19   2.0000      -0.603535       -16.4230
  20   2.0000      -0.595618       -16.2076
  21   2.0000      -0.569378       -15.4936
  22   2.0000      -0.520535       -14.1645
  23   2.0000      -0.503731       -13.7072
  24   2.0000      -0.489723       -13.3261
  25   2.0000      -0.484141       -13.1742
  26   2.0000      -0.455604       -12.3976
  27   2.0000      -0.445795       -12.1307
  28   2.0000      -0.422336       -11.4923
  29   2.0000      -0.420395       -11.4395
  30   2.0000      -0.403355       -10.9759
  31   2.0000      -0.387383       -10.5412
  32   2.0000      -0.378376       -10.2961
  33   2.0000      -0.372200       -10.1281
  34   2.0000      -0.363711        -9.8971
  35   2.0000      -0.353760        -9.6263
  36   2.0000      -0.347129        -9.4459
  37   2.0000      -0.310257        -8.4425
  38   2.0000      -0.309383        -8.4187
  39   2.0000      -0.297804        -8.1037
  40   2.0000      -0.260021        -7.0755
  41   2.0000      -0.244531        -6.6540
  42   2.0000      -0.239939        -6.5291
  43   0.0000       0.074000         2.0136
  44   0.0000       0.090130         2.4525
  45   0.0000       0.096701         2.6314
  46   0.0000       0.103399         2.8136
  47   0.0000       0.113512         3.0888

MULLIKEN ATOMIC CHARGES
-----------------------
   0 C :    0.294402
   1 C :   -0.267867
   2 C :   -0.301257
   3 C :   -0.000726
   4 O :   -0.503510
   5 H :    0.137064
   6 H :    0.140798
   7 H :    0.146298
   8 H :    0.140206
   9 H :    0.171261
  10 H :    0.153990
  11 H :    0.139255
  12 C :   -0.001506
  13 H :    0.124290
  14 C :    0.091259
  15 C :   -0.322931
  16 C :   -0.004286
  17 O :   -0.520046
  18 H :    0.173636
  19 O :   -0.517292
  20 H :    0.136532
  21 H :    0.148944
  22 H :    0.153243
  23 H :    0.137067
  24 H :    0.151176
Sum of atomic charges:    0.0000000

LOEWDIN ATOMIC CHARGES
----------------------
   0 C :    0.180934
   1 C :   -0.228855
   2 C :   -0.216332
   3 C :   -0.025395
   4 O :   -0.306641
   5 H :    0.094647
   6 H :    0.111722
   7 H :    0.115034
   8 H :    0.113707
   9 H :    0.123612
  10 H :    0.108961
  11 H :    0.100844
  12 C :   -0.033459
  13 H :    0.091466
  14 C :    0.042739
  15 C :   -0.241770
  16 C :   -0.031678
  17 O :   -0.330284
  18 H :    0.126284
  19 O :   -0.332623
  20 H :    0.098851
  21 H :    0.117692
  22 H :    0.120958
  23 H :    0.099124
  24 H :    0.100460

  Mayer bond orders larger than 0.100000
B(  0-C ,  1-C ) :   0.9306 B(  0-C ,  4-O ) :   0.9334 B(  0-C ,  5-H ) :   0.9201
B(  0-C , 19-O ) :   0.8323 B(  1-C ,  2-C ) :   0.9548 B(  1-C ,  6-H ) :   0.9341
B(  1-C ,  7-H ) :   0.9226 B(  2-C ,  3-C ) :   0.9550 B(  2-C ,  8-H ) :   0.9449
B(  2-C ,  9-H ) :   0.9409 B(  3-C ,  4-O ) :   0.8344 B(  3-C , 10-H ) :   0.9347
B(  3-C , 11-H ) :   0.9398 B( 12-C , 13-H ) :   0.9152 B( 12-C , 14-C ) :   0.9280
B( 12-C , 17-O ) :   0.8646 B( 12-C , 18-H ) :   0.9299 B( 14-C , 15-C ) :   0.9320
B( 14-C , 19-O ) :   0.8509 B( 14-C , 20-H ) :   0.9224 B( 15-C , 16-C ) :   0.9412
B( 15-C , 21-H ) :   0.9336 B( 15-C , 22-H ) :   0.9349 B( 16-C , 17-O ) :   0.8660
B( 16-C , 23-H ) :   0.9315 B( 16-C , 24-H ) :   0.9221

FINAL SINGLE POINT ENERGY      -538.426059636373

DIPOLE MOMENT
-------------
                                X             Y             Z
Electronic contribution:     -1.92034      -2.36168       1.98073
Nuclear contribution   :      2.42949       2.38362      -2.85309
                        -----------------------------------------
Total Dipole Moment    :      0.50915       0.02194      -0.87236
                        -----------------------------------------
Magnitude (a.u.)       :      1.01031
Magnitude (Debye)      :      2.56800

Rotational constants in cm-1:     0.073512     0.022950     0.021920
Rotational constants in MHz :  2203.826737   688.033523   657.155557

                             ****ORCA TERMINATED NORMALLY****
TOTAL RUN TIME: 0 days 0 hours 7 minutes 59 seconds 246 msec
