                         Program Version 4.2.0 -  RELEASE  -
|  1> # Test redundant internal optimization
|  2> #
|  3> ! RKS B3LYP  Opt TightSCF SmallPrint
|  4>
|  5> %basis
|  6>         Basis "6-31G"
|  7> end
|  8>
|  9> %geom
| 10> Constraints
| 11> { D 4  0  15  12  210.0   C } # D for Dihedral angle
| 12> { D 0  15  12  16  210.0   C } # D for Dihedral angle
| 13> { D 0  4  3  2   C } # D for Dihedral angle
| 14> { D 4  3  2  1   C } # D for Dihedral angle
| 15> { D 3  2  1  0   C } # D for Dihedral angle
| 16> { D 2  1  0  4   C } # D for Dihedral angle
| 17> { D 1  0  4  3   C } # D for Dihedral angle
| 18> { D 16  20  19  18   C } # D for Dihedral angle
| 19> { D 20  19  18  17   C } # D for Dihedral angle
| 20> { D 19  18  17  16   C } # D for Dihedral angle
| 21> { D 18  17  16  20   C } # D for Dihedral angle
| 22> { D 17  16  20  19   C } # D for Dihedral angle
| 23> { D 15  12  16  20   C } # D for Dihedral angle
| 24> end
| 25> end
| 26>
| 27>
| 28> #%pal
| 29> #nprocs 8
| 30> #end
| 31>
| 32> * xyz 0 1
| 33> C  -21.048   26.222   46.251
| 34> C  -20.361   27.558   45.944
| 35> C  -20.329   28.222   47.341
| 36> C  -20.110   27.022   48.296
| 37> O  -20.473   25.807   47.535
| 38> H  -20.833   25.428   45.533
| 39> H  -19.344   27.382   45.576
| 40> H  -20.898   28.157   45.201
| 41> H  -19.543   28.978   47.434
| 42> H  -21.289   28.710   47.548
| 43> H  -20.733   27.082   49.195
| 44> H  -19.064   26.913   48.597
| 45> C  -23.389   26.110   45.076
| 46> H  -22.765   26.347   44.205
| 47> H  -23.668   25.050   45.021
| 48> O  -22.586   26.394   46.375
| 49> C  -24.695   26.948   44.982
| 50> C  -24.389   28.446   44.882
| 51> C  -24.007   28.589   43.389
| 52> C  -24.938   27.567   42.689
| 53> O  -25.412   26.641   43.740
| 54> H  -25.355   26.675   45.808
| 55> H  -25.289   29.029   45.108
| 56> O  -23.255   28.903   45.841
| 57> H  -24.146   29.607   43.012
| 58> H  -22.955   28.318   43.243
| 59> H  -24.422   26.994   41.912
| 60> H  -25.822   28.039   42.252
| 61> H  -22.344   28.332   45.631
| 62> *
| 63>
| 64>                          ****END OF INPUT****
 Total Charge           Charge          ....    0
 Multiplicity           Mult            ....    1
 Number of Electrons    NEL             ....  102
FINAL SINGLE POINT ENERGY      -652.819073608013
FINAL SINGLE POINT ENERGY      -652.845638067753
FINAL SINGLE POINT ENERGY      -652.853176598127
FINAL SINGLE POINT ENERGY      -652.856487464018
FINAL SINGLE POINT ENERGY      -652.858408465205
FINAL SINGLE POINT ENERGY      -652.860187359690
FINAL SINGLE POINT ENERGY      -652.861593273863
FINAL SINGLE POINT ENERGY      -652.862486347400
FINAL SINGLE POINT ENERGY      -652.862919603081
FINAL SINGLE POINT ENERGY      -652.862995765351
FINAL SINGLE POINT ENERGY      -652.863016355910
                    ***********************HURRAY********************

CARTESIAN COORDINATES (ANGSTROEM)
---------------------------------
  C    -21.101314   26.205453   46.220083
  C    -20.358007   27.493013   45.867714
  C    -20.332782   28.234103   47.229052
  C    -20.185080   27.081206   48.243138
  O    -20.586762   25.849117   47.505775
  H    -20.914130   25.361208   45.550487
  H    -19.343582   27.239323   45.541031
  H    -20.848148   28.078648   45.086708
  H    -19.505162   28.947357   47.290938
  H    -21.259291   28.793760   47.382027
  H    -20.829509   27.184013   49.119261
  H    -19.152317   26.924962   48.565823
  C    -23.303663   26.082221   45.080851
  H    -22.667490   26.265929   44.205233
  H    -23.590398   25.025670   45.089360
  O    -22.558581   26.396668   46.315167
  C    -24.561582   26.956079   44.996728
  C    -24.320990   28.470332   44.900762
  C    -23.967465   28.639130   43.395348
  C    -24.861565   27.586074   42.706889
  O    -25.281484   26.627216   43.769275
  H    -25.226798   26.704514   45.828065
  H    -25.262390   28.989913   45.116723
  O    -23.298954   28.978547   45.784327
  H    -24.159756   29.655157   43.040594
  H    -22.901004   28.430966   43.255884
  H    -24.346265   27.032159   41.916256
  H    -25.779407   28.015420   42.295922
  H    -22.958122   28.221842   46.317577

 Multiplicity           Mult            ....    1
 Number of Electrons    NEL             ....  102
 Basis Dimension        Dim             ....  149

ORBITAL ENERGIES
----------------

  NO   OCC          E(Eh)            E(eV)
   0   2.0000     -19.162082      -521.4268
   1   2.0000     -19.149065      -521.0726
   2   2.0000     -19.145636      -520.9792
   3   2.0000     -19.124749      -520.4109
   4   2.0000     -10.290255      -280.0121
   5   2.0000     -10.240883      -278.6686
   6   2.0000     -10.239144      -278.6213
   7   2.0000     -10.237191      -278.5681
   8   2.0000     -10.231722      -278.4193
   9   2.0000     -10.230584      -278.3883
  10   2.0000     -10.191926      -277.3364
  11   2.0000     -10.190760      -277.3047
  12   2.0000     -10.186602      -277.1915
  13   2.0000      -1.062698       -28.9175
  14   2.0000      -1.031787       -28.0764
  15   2.0000      -1.009816       -27.4785
  16   2.0000      -0.999691       -27.2030
  17   2.0000      -0.792968       -21.5778
  18   2.0000      -0.777474       -21.1561
  19   2.0000      -0.771715       -20.9994
  20   2.0000      -0.737035       -20.0557
  21   2.0000      -0.682366       -18.5681
  22   2.0000      -0.606697       -16.5091
  23   2.0000      -0.603390       -16.4191
  24   2.0000      -0.595556       -16.2059
  25   2.0000      -0.586564       -15.9612
  26   2.0000      -0.530764       -14.4428
  27   2.0000      -0.517303       -14.0765
  28   2.0000      -0.501655       -13.6507
  29   2.0000      -0.494872       -13.4661
  30   2.0000      -0.473227       -12.8772
  31   2.0000      -0.461302       -12.5527
  32   2.0000      -0.448436       -12.2026
  33   2.0000      -0.435258       -11.8440
  34   2.0000      -0.431752       -11.7486
  35   2.0000      -0.424504       -11.5514
  36   2.0000      -0.408529       -11.1166
  37   2.0000      -0.392229       -10.6731
  38   2.0000      -0.381200       -10.3730
  39   2.0000      -0.376020       -10.2320
  40   2.0000      -0.363460        -9.8903
  41   2.0000      -0.360795        -9.8177
  42   2.0000      -0.351383        -9.5616
  43   2.0000      -0.343565        -9.3489
  44   2.0000      -0.325926        -8.8689
  45   2.0000      -0.320156        -8.7119
  46   2.0000      -0.296416        -8.0659
  47   2.0000      -0.273035        -7.4297
  48   2.0000      -0.268519        -7.3068
  49   2.0000      -0.254989        -6.9386
  50   2.0000      -0.247617        -6.7380
  51   0.0000       0.053121         1.4455
  52   0.0000       0.070312         1.9133
  53   0.0000       0.093030         2.5315
  54   0.0000       0.094586         2.5738
  55   0.0000       0.100368         2.7312

MULLIKEN ATOMIC CHARGES
-----------------------
   0 C :    0.301795
   1 C :   -0.289688
   2 C :   -0.313991
   3 C :   -0.007321
   4 O :   -0.500140
   5 H :    0.148385
   6 H :    0.150193
   7 H :    0.163836
   8 H :    0.149093
   9 H :    0.173126
  10 H :    0.157383
  11 H :    0.147019
  12 C :   -0.012090
  13 H :    0.132765
  14 H :    0.167450
  15 O :   -0.540218
  16 C :    0.034820
  17 C :    0.123672
  18 C :   -0.306749
  19 C :   -0.016245
  20 O :   -0.518356
  21 H :    0.167258
  22 H :    0.146867
  23 O :   -0.653875
  24 H :    0.152524
  25 H :    0.147801
  26 H :    0.142275
  27 H :    0.150794
  28 H :    0.401617
Sum of atomic charges:   -0.0000000

LOEWDIN ATOMIC CHARGES
----------------------
   0 C :    0.179452
   1 C :   -0.234024
   2 C :   -0.218435
   3 C :   -0.026377
   4 O :   -0.301911
   5 H :    0.102004
   6 H :    0.117783
   7 H :    0.122524
   8 H :    0.119046
   9 H :    0.122727
  10 H :    0.110875
  11 H :    0.105386
  12 C :   -0.043813
  13 H :    0.096217
  14 H :    0.116276
  15 O :   -0.345872
  16 C :    0.015797
  17 C :    0.042039
  18 C :   -0.233896
  19 C :   -0.031070
  20 O :   -0.320839
  21 H :    0.117999
  22 H :    0.103900
  23 O :   -0.438971
  24 H :    0.121864
  25 H :    0.110271
  26 H :    0.102071
  27 H :    0.107191
  28 H :    0.281783

  Mayer bond orders larger than 0.100000
B(  0-C ,  1-C ) :   0.9352 B(  0-C ,  4-O ) :   0.9486 B(  0-C ,  5-H ) :   0.9220
B(  0-C , 15-O ) :   0.7961 B(  1-C ,  2-C ) :   0.9496 B(  1-C ,  6-H ) :   0.9327
B(  1-C ,  7-H ) :   0.9223 B(  2-C ,  3-C ) :   0.9498 B(  2-C ,  8-H ) :   0.9451
B(  2-C ,  9-H ) :   0.9341 B(  3-C ,  4-O ) :   0.8290 B(  3-C , 10-H ) :   0.9345
B(  3-C , 11-H ) :   0.9395 B( 12-C , 13-H ) :   0.9194 B( 12-C , 14-H ) :   0.9232
B( 12-C , 15-O ) :   0.7974 B( 12-C , 16-C ) :   0.9072 B( 15-O , 28-H ) :   0.1082
B( 16-C , 17-C ) :   0.9171 B( 16-C , 20-O ) :   0.8584 B( 16-C , 21-H ) :   0.9269
B( 17-C , 18-C ) :   0.9082 B( 17-C , 22-H ) :   0.9262 B( 17-C , 23-O ) :   0.9164
B( 18-C , 19-C ) :   0.9383 B( 18-C , 24-H ) :   0.9451 B( 18-C , 25-H ) :   0.9415
B( 19-C , 20-O ) :   0.8338 B( 19-C , 26-H ) :   0.9343 B( 19-C , 27-H ) :   0.9381
B( 23-O , 28-H ) :   0.6921

FINAL SINGLE POINT ENERGY      -652.863021288576

DIPOLE MOMENT
-------------
                                X             Y             Z
Electronic contribution:     -2.99315      -3.77185       2.28321
Nuclear contribution   :      3.73587       4.19055      -2.97023
                        -----------------------------------------
Total Dipole Moment    :      0.74272       0.41870      -0.68701
                        -----------------------------------------
Magnitude (a.u.)       :      1.09496
Magnitude (Debye)      :      2.78317

Rotational constants in cm-1:     0.058997     0.014730     0.013414
Rotational constants in MHz :  1768.682719   441.607981   402.142488

                             ****ORCA TERMINATED NORMALLY****
TOTAL RUN TIME: 0 days 0 hours 24 minutes 13 seconds 160 msec
