                         Program Version 4.2.0 -  RELEASE  -
|  1> # Test redundant internal optimization
|  2> #
|  3> ! RKS B3LYP  Opt TightSCF SmallPrint
|  4>
|  5> %basis
|  6>         Basis "6-31G"
|  7> end
|  8>
|  9> %geom
| 10> Constraints
| 11> { D 4  0  15  12  225.0   C } # D for Dihedral angle
| 12> { D 0  15  12  16  195.0   C } # D for Dihedral angle
| 13> { D 0  4  3  2   C } # D for Dihedral angle
| 14> { D 4  3  2  1   C } # D for Dihedral angle
| 15> { D 3  2  1  0   C } # D for Dihedral angle
| 16> { D 2  1  0  4   C } # D for Dihedral angle
| 17> { D 1  0  4  3   C } # D for Dihedral angle
| 18> { D 16  20  19  18   C } # D for Dihedral angle
| 19> { D 20  19  18  17   C } # D for Dihedral angle
| 20> { D 19  18  17  16   C } # D for Dihedral angle
| 21> { D 18  17  16  20   C } # D for Dihedral angle
| 22> { D 17  16  20  19   C } # D for Dihedral angle
| 23> { D 15  12  16  20   C } # D for Dihedral angle
| 24> end
| 25> end
| 26>
| 27>
| 28> #%pal
| 29> #nprocs 8
| 30> #end
| 31>
| 32> * xyz 0 1
| 33> C  -21.048   26.222   46.251
| 34> C  -20.361   27.558   45.944
| 35> C  -20.329   28.222   47.341
| 36> C  -20.110   27.022   48.296
| 37> O  -20.473   25.807   47.535
| 38> H  -20.833   25.428   45.533
| 39> H  -19.344   27.382   45.576
| 40> H  -20.898   28.157   45.201
| 41> H  -19.543   28.978   47.434
| 42> H  -21.289   28.710   47.548
| 43> H  -20.733   27.082   49.195
| 44> H  -19.064   26.913   48.597
| 45> C  -23.415   25.773   45.218
| 46> H  -22.945   26.025   44.259
| 47> H  -23.443   24.679   45.309
| 48> O  -22.586   26.394   46.375
| 49> C  -24.883   26.282   45.190
| 50> C  -25.701   25.564   44.112
| 51> C  -26.019   24.217   44.803
| 52> C  -26.198   24.618   46.289
| 53> O  -25.566   25.946   46.444
| 54> H  -24.883   27.371   45.108
| 55> H  -26.623   26.119   43.905
| 56> O  -24.928   25.387   42.776
| 57> H  -26.909   23.728   44.393
| 58> H  -25.175   23.526   44.689
| 59> H  -25.719   23.911   46.975
| 60> H  -27.250   24.727   46.569
| 61> H  -24.001   24.832   42.957
| 62> *
| 63>
| 64>                          ****END OF INPUT****
 Total Charge           Charge          ....    0
 Multiplicity           Mult            ....    1
 Number of Electrons    NEL             ....  102
FINAL SINGLE POINT ENERGY      -652.825296749094
FINAL SINGLE POINT ENERGY      -652.849177606810
FINAL SINGLE POINT ENERGY      -652.853504136574
FINAL SINGLE POINT ENERGY      -652.854330635550
FINAL SINGLE POINT ENERGY      -652.854514304264
FINAL SINGLE POINT ENERGY      -652.854549541026
FINAL SINGLE POINT ENERGY      -652.854559539579
FINAL SINGLE POINT ENERGY      -652.854561541411
                    ***********************HURRAY********************

CARTESIAN COORDINATES (ANGSTROEM)
---------------------------------
  C    -21.037920   26.182600   46.196598
  C    -20.427345   27.557128   45.929637
  C    -20.507766   28.218890   47.325583
  C    -20.259967   27.034760   48.284534
  O    -20.512066   25.808659   47.482570
  H    -20.757610   25.394325   45.490946
  H    -19.383929   27.440349   45.612183
  H    -20.968863   28.111686   45.158864
  H    -19.776919   29.022765   47.453810
  H    -21.510029   28.630182   47.477253
  H    -20.932090   27.031231   49.145811
  H    -19.223464   26.974689   48.630037
  C    -23.229036   25.685179   45.194260
  H    -22.797640   25.953755   44.217707
  H    -23.200749   24.588871   45.299268
  O    -22.485329   26.297151   46.276960
  C    -24.658104   26.217191   45.242381
  C    -25.578788   25.617684   44.167281
  C    -26.024038   24.280918   44.833492
  C    -26.117970   24.662357   46.327134
  O    -25.340692   25.916604   46.495868
  H    -24.610059   27.308553   45.185132
  H    -26.438366   26.275955   44.022436
  O    -24.991531   25.482110   42.849274
  H    -26.968426   23.910258   44.426858
  H    -25.256316   23.513647   44.663381
  H    -25.705867   23.896466   46.991108
  H    -27.145422   24.879661   46.634028
  H    -24.422701   24.686377   42.807607

 Multiplicity           Mult            ....    1
 Number of Electrons    NEL             ....  102
 Basis Dimension        Dim             ....  149

ORBITAL ENERGIES
----------------

  NO   OCC          E(Eh)            E(eV)
   0   2.0000     -19.151924      -521.1504
   1   2.0000     -19.135960      -520.7159
   2   2.0000     -19.135415      -520.7011
   3   2.0000     -19.134349      -520.6721
   4   2.0000     -10.275650      -279.6147
   5   2.0000     -10.246339      -278.8170
   6   2.0000     -10.231874      -278.4235
   7   2.0000     -10.230821      -278.3948
   8   2.0000     -10.229088      -278.3476
   9   2.0000     -10.219322      -278.0819
  10   2.0000     -10.196815      -277.4695
  11   2.0000     -10.181791      -277.0606
  12   2.0000     -10.180557      -277.0271
  13   2.0000      -1.048585       -28.5334
  14   2.0000      -1.034331       -28.1456
  15   2.0000      -1.015297       -27.6276
  16   2.0000      -0.990349       -26.9488
  17   2.0000      -0.784789       -21.3552
  18   2.0000      -0.781148       -21.2561
  19   2.0000      -0.766812       -20.8660
  20   2.0000      -0.727317       -19.7913
  21   2.0000      -0.679277       -18.4841
  22   2.0000      -0.612514       -16.6674
  23   2.0000      -0.594029       -16.1644
  24   2.0000      -0.586502       -15.9595
  25   2.0000      -0.579859       -15.7788
  26   2.0000      -0.528471       -14.3804
  27   2.0000      -0.510915       -13.9027
  28   2.0000      -0.498411       -13.5625
  29   2.0000      -0.485683       -13.2161
  30   2.0000      -0.466556       -12.6956
  31   2.0000      -0.457500       -12.4492
  32   2.0000      -0.447023       -12.1641
  33   2.0000      -0.433075       -11.7846
  34   2.0000      -0.424745       -11.5579
  35   2.0000      -0.421325       -11.4648
  36   2.0000      -0.402043       -10.9401
  37   2.0000      -0.397754       -10.8234
  38   2.0000      -0.376650       -10.2492
  39   2.0000      -0.371830       -10.1180
  40   2.0000      -0.353659        -9.6236
  41   2.0000      -0.351456        -9.5636
  42   2.0000      -0.347951        -9.4682
  43   2.0000      -0.329530        -8.9670
  44   2.0000      -0.317020        -8.6265
  45   2.0000      -0.309353        -8.4179
  46   2.0000      -0.302489        -8.2311
  47   2.0000      -0.272570        -7.4170
  48   2.0000      -0.258284        -7.0283
  49   2.0000      -0.246431        -6.7057
  50   2.0000      -0.237893        -6.4734
  51   0.0000       0.048889         1.3303
  52   0.0000       0.078764         2.1433
  53   0.0000       0.087226         2.3735
  54   0.0000       0.093548         2.5456
  55   0.0000       0.104042         2.8311

MULLIKEN ATOMIC CHARGES
-----------------------
   0 C :    0.286679
   1 C :   -0.254417
   2 C :   -0.300288
   3 C :   -0.000537
   4 O :   -0.502143
   5 H :    0.133663
   6 H :    0.140100
   7 H :    0.143872
   8 H :    0.139321
   9 H :    0.167113
  10 H :    0.156136
  11 H :    0.138320
  12 C :   -0.013399
  13 H :    0.128987
  14 H :    0.124917
  15 O :   -0.503251
  16 C :    0.093434
  17 C :    0.078387
  18 C :   -0.325159
  19 C :   -0.012160
  20 O :   -0.500523
  21 H :    0.162913
  22 H :    0.170370
  23 O :   -0.599716
  24 H :    0.156335
  25 H :    0.134628
  26 H :    0.151896
  27 H :    0.149081
  28 H :    0.355439
Sum of atomic charges:   -0.0000000

LOEWDIN ATOMIC CHARGES
----------------------
   0 C :    0.176431
   1 C :   -0.223953
   2 C :   -0.216663
   3 C :   -0.025449
   4 O :   -0.311691
   5 H :    0.095853
   6 H :    0.110914
   7 H :    0.116373
   8 H :    0.113155
   9 H :    0.121776
  10 H :    0.110317
  11 H :    0.100574
  12 C :   -0.050146
  13 H :    0.094472
  14 H :    0.089639
  15 O :   -0.322660
  16 C :    0.022294
  17 C :    0.033533
  18 C :   -0.241567
  19 C :   -0.029921
  20 O :   -0.310351
  21 H :    0.119282
  22 H :    0.120075
  23 O :   -0.408356
  24 H :    0.122172
  25 H :    0.103828
  26 H :    0.106595
  27 H :    0.105762
  28 H :    0.277710

  Mayer bond orders larger than 0.100000
B(  0-C ,  1-C ) :   0.9373 B(  0-C ,  4-O ) :   0.9346 B(  0-C ,  5-H ) :   0.9197
B(  0-C , 15-O ) :   0.8398 B(  1-C ,  2-C ) :   0.9562 B(  1-C ,  6-H ) :   0.9356
B(  1-C ,  7-H ) :   0.9386 B(  2-C ,  3-C ) :   0.9551 B(  2-C ,  8-H ) :   0.9452
B(  2-C ,  9-H ) :   0.9423 B(  3-C ,  4-O ) :   0.8366 B(  3-C , 10-H ) :   0.9341
B(  3-C , 11-H ) :   0.9399 B( 12-C , 13-H ) :   0.9018 B( 12-C , 14-H ) :   0.9152
B( 12-C , 15-O ) :   0.8499 B( 12-C , 16-C ) :   0.9064 B( 16-C , 17-C ) :   0.8737
B( 16-C , 20-O ) :   0.8779 B( 16-C , 21-H ) :   0.9288 B( 17-C , 18-C ) :   0.9262
B( 17-C , 22-H ) :   0.9326 B( 17-C , 23-O ) :   0.8940 B( 18-C , 19-C ) :   0.9378
B( 18-C , 24-H ) :   0.9419 B( 18-C , 25-H ) :   0.9400 B( 19-C , 20-O ) :   0.8508
B( 19-C , 26-H ) :   0.9302 B( 19-C , 27-H ) :   0.9377 B( 23-O , 28-H ) :   0.7994

FINAL SINGLE POINT ENERGY      -652.854561825184

DIPOLE MOMENT
-------------
                                X             Y             Z
Electronic contribution:     -1.41165      -0.95141       0.10822
Nuclear contribution   :      1.55031       0.61456      -0.77324
                        -----------------------------------------
Total Dipole Moment    :      0.13867      -0.33685      -0.66501
                        -----------------------------------------
Magnitude (a.u.)       :      0.75825
Magnitude (Debye)      :      1.92732

Rotational constants in cm-1:     0.057101     0.012038     0.011053
Rotational constants in MHz :  1711.848515   360.879266   331.368054

                             ****ORCA TERMINATED NORMALLY****
TOTAL RUN TIME: 0 days 0 hours 25 minutes 13 seconds 759 msec
