                         Program Version 4.2.1 -  RELEASE  -
|  1> # Test redundant internal optimization
|  2> #
|  3> ! RKS B3LYP  Opt TightSCF SmallPrint
|  4>
|  5> %basis
|  6>         Basis "6-31G"
|  7> end
|  8>
|  9> %geom
| 10> Constraints
| 11> { D 4  0  19  14  270.0   C } # D for Dihedral angle
| 12> { D 0  19  14  12  255.0   C } # D for Dihedral angle
| 13> { D 0  4  3  2   C } # D for Dihedral angle
| 14> { D 4  3  2  1   C } # D for Dihedral angle
| 15> { D 3  2  1  0   C } # D for Dihedral angle
| 16> { D 2  1  0  4   C } # D for Dihedral angle
| 17> { D 1  0  4  3   C } # D for Dihedral angle
| 18> { D 14  15  16  17   C } # D for Dihedral angle
| 19> { D 15  16  17  12   C } # D for Dihedral angle
| 20> { D 16  17  12  14   C } # D for Dihedral angle
| 21> { D 17  12  14  15   C } # D for Dihedral angle
| 22> { D 12  14  15  16   C } # D for Dihedral angle
| 23> end
| 24> end
| 25>
| 26>
| 27> #%pal
| 28> #nprocs 8
| 29> #end
| 30>
| 31> * xyz 0 1
| 32> C  -21.048   26.222   46.251
| 33> C  -20.361   27.558   45.944
| 34> C  -20.329   28.222   47.341
| 35> C  -20.110   27.022   48.296
| 36> O  -20.473   25.807   47.535
| 37> H  -20.833   25.428   45.533
| 38> H  -19.344   27.382   45.576
| 39> H  -20.898   28.157   45.201
| 40> H  -19.543   28.978   47.434
| 41> H  -21.289   28.710   47.548
| 42> H  -20.733   27.082   49.195
| 43> H  -19.064   26.913   48.597
| 44> C  -23.886   25.304   44.703
| 45> H  -24.687   24.558   44.581
| 46> C  -23.226   25.191   46.082
| 47> C  -22.283   23.982   45.882
| 48> C  -21.825   24.133   44.409
| 49> O  -22.795   25.041   43.758
| 50> H  -24.279   26.294   44.469
| 51> O  -22.472   26.381   46.366
| 52> H  -23.947   25.038   46.893
| 53> H  -21.442   23.978   46.582
| 54> H  -22.837   23.045   46.019
| 55> H  -21.811   23.178   43.873
| 56> H  -20.839   24.601   44.324
| 57> *
| 58>
| 59>                          ****END OF INPUT****
 Total Charge           Charge          ....    0
 Multiplicity           Mult            ....    1
 Number of Electrons    NEL             ....   86
FINAL SINGLE POINT ENERGY      -538.410762138798
FINAL SINGLE POINT ENERGY      -538.430019061048
FINAL SINGLE POINT ENERGY      -538.432130211418
FINAL SINGLE POINT ENERGY      -538.432488225977
FINAL SINGLE POINT ENERGY      -538.432516210146
FINAL SINGLE POINT ENERGY      -538.432522773329
                    ***********************HURRAY********************

CARTESIAN COORDINATES (ANGSTROEM)
---------------------------------
  C    -20.830260   26.305920   46.213378
  C    -20.356250   27.747706   46.018246
  C    -20.438796   28.307435   47.459061
  C    -20.045709   27.089094   48.326697
  O    -20.215907   25.897759   47.460990
  H    -20.492221   25.602061   45.454915
  H    -19.320600   27.742141   45.659245
  H    -20.979498   28.289187   45.304576
  H    -19.774747   29.162139   47.618121
  H    -21.465204   28.618209   47.673543
  H    -20.675900   26.975844   49.212824
  H    -18.995074   27.108093   48.632478
  C    -23.798403   25.352424   44.665419
  H    -24.722682   24.758029   44.629375
  C    -23.100102   25.185772   46.016520
  C    -22.400271   23.826027   45.837737
  C    -21.996219   23.819568   44.341563
  O    -22.823435   24.858076   43.682972
  H    -24.013929   26.393707   44.424631
  O    -22.265152   26.347614   46.317832
  H    -23.823971   25.152048   46.837591
  H    -21.554150   23.700983   46.519274
  H    -23.126250   23.033965   46.047752
  H    -22.192998   22.853296   43.862747
  H    -20.946275   24.077904   44.174513

 Multiplicity           Mult            ....    1
 Number of Electrons    NEL             ....   86
 Basis Dimension        Dim             ....  127

ORBITAL ENERGIES
----------------

  NO   OCC          E(Eh)            E(eV)
   0   2.0000     -19.139496      -520.8122
   1   2.0000     -19.134904      -520.6872
   2   2.0000     -19.132647      -520.6258
   3   2.0000     -10.275490      -279.6103
   4   2.0000     -10.240186      -278.6496
   5   2.0000     -10.226098      -278.2663
   6   2.0000     -10.221440      -278.1395
   7   2.0000     -10.220561      -278.1156
   8   2.0000     -10.189302      -277.2650
   9   2.0000     -10.180924      -277.0370
  10   2.0000     -10.180221      -277.0179
  11   2.0000      -1.049747       -28.5651
  12   2.0000      -1.014484       -27.6055
  13   2.0000      -0.987237       -26.8641
  14   2.0000      -0.790895       -21.5214
  15   2.0000      -0.773937       -21.0599
  16   2.0000      -0.746215       -20.3055
  17   2.0000      -0.717859       -19.5339
  18   2.0000      -0.614847       -16.7308
  19   2.0000      -0.603460       -16.4210
  20   2.0000      -0.593076       -16.1384
  21   2.0000      -0.565982       -15.4012
  22   2.0000      -0.525515       -14.3000
  23   2.0000      -0.500412       -13.6169
  24   2.0000      -0.480892       -13.0857
  25   2.0000      -0.476474       -12.9655
  26   2.0000      -0.453112       -12.3298
  27   2.0000      -0.441315       -12.0088
  28   2.0000      -0.422615       -11.4999
  29   2.0000      -0.415491       -11.3061
  30   2.0000      -0.404462       -11.0060
  31   2.0000      -0.394472       -10.7341
  32   2.0000      -0.368505       -10.0275
  33   2.0000      -0.368288       -10.0216
  34   2.0000      -0.356695        -9.7062
  35   2.0000      -0.351910        -9.5760
  36   2.0000      -0.342269        -9.3136
  37   2.0000      -0.319668        -8.6986
  38   2.0000      -0.308605        -8.3976
  39   2.0000      -0.293101        -7.9757
  40   2.0000      -0.264029        -7.1846
  41   2.0000      -0.249955        -6.8016
  42   2.0000      -0.235852        -6.4178
  43   0.0000       0.075161         2.0452
  44   0.0000       0.100356         2.7308
  45   0.0000       0.103779         2.8240
  46   0.0000       0.108768         2.9597
  47   0.0000       0.113437         3.0868

MULLIKEN ATOMIC CHARGES
-----------------------
   0 C :    0.284933
   1 C :   -0.251964
   2 C :   -0.296171
   3 C :   -0.001063
   4 O :   -0.516507
   5 H :    0.148803
   6 H :    0.141831
   7 H :    0.156542
   8 H :    0.137736
   9 H :    0.161452
  10 H :    0.145603
  11 H :    0.139881
  12 C :   -0.004212
  13 H :    0.124766
  14 C :    0.092763
  15 C :   -0.337875
  16 C :   -0.010038
  17 O :   -0.525001
  18 H :    0.164693
  19 O :   -0.529199
  20 H :    0.147125
  21 H :    0.186712
  22 H :    0.151453
  23 H :    0.139062
  24 H :    0.148673
Sum of atomic charges:    0.0000000

LOEWDIN ATOMIC CHARGES
----------------------
   0 C :    0.171788
   1 C :   -0.212257
   2 C :   -0.215612
   3 C :   -0.027461
   4 O :   -0.333782
   5 H :    0.102019
   6 H :    0.112058
   7 H :    0.123897
   8 H :    0.112006
   9 H :    0.118825
  10 H :    0.104326
  11 H :    0.101074
  12 C :   -0.043469
  13 H :    0.091936
  14 C :    0.043973
  15 C :   -0.242904
  16 C :   -0.035582
  17 O :   -0.336125
  18 H :    0.120807
  19 O :   -0.322114
  20 H :    0.109101
  21 H :    0.136466
  22 H :    0.121400
  23 H :    0.100084
  24 H :    0.099546

  Mayer bond orders larger than 0.100000
B(  0-C ,  1-C ) :   0.9477 B(  0-C ,  4-O ) :   0.8990 B(  0-C ,  5-H ) :   0.9073
B(  0-C , 19-O ) :   0.8554 B(  1-C ,  2-C ) :   0.9573 B(  1-C ,  6-H ) :   0.9410
B(  1-C ,  7-H ) :   0.9371 B(  2-C ,  3-C ) :   0.9543 B(  2-C ,  8-H ) :   0.9458
B(  2-C ,  9-H ) :   0.9441 B(  3-C ,  4-O ) :   0.8384 B(  3-C , 10-H ) :   0.9359
B(  3-C , 11-H ) :   0.9404 B( 12-C , 13-H ) :   0.9126 B( 12-C , 14-C ) :   0.9170
B( 12-C , 17-O ) :   0.8641 B( 12-C , 18-H ) :   0.9326 B( 14-C , 15-C ) :   0.9405
B( 14-C , 19-O ) :   0.8530 B( 14-C , 20-H ) :   0.9329 B( 15-C , 16-C ) :   0.9413
B( 15-C , 21-H ) :   0.9218 B( 15-C , 22-H ) :   0.9372 B( 16-C , 17-O ) :   0.8572
B( 16-C , 23-H ) :   0.9327 B( 16-C , 24-H ) :   0.9258

FINAL SINGLE POINT ENERGY      -538.432523434749

DIPOLE MOMENT
-------------
                                X             Y             Z
Electronic contribution:     -1.09682      -1.06433      -1.09489
Nuclear contribution   :      1.10140       1.09318       1.58270
                        -----------------------------------------
Total Dipole Moment    :      0.00458       0.02885       0.48781
                        -----------------------------------------
Magnitude (a.u.)       :      0.48869
Magnitude (Debye)      :      1.24215

Rotational constants in cm-1:     0.081325     0.021895     0.020769
Rotational constants in MHz :  2438.052421   656.387898   622.624830

                             ****ORCA TERMINATED NORMALLY****
TOTAL RUN TIME: 0 days 0 hours 7 minutes 22 seconds 568 msec
