                         Program Version 4.2.0 -  RELEASE  -
|  1> # Test redundant internal optimization
|  2> #
|  3> ! RKS B3LYP  Opt TightSCF SmallPrint
|  4>
|  5> %basis
|  6>         Basis "6-31G"
|  7> end
|  8>
|  9> %geom
| 10> Constraints
| 11> { D 4  0  15  12  150.0   C } # D for Dihedral angle
| 12> { D 0  15  12  16  255.0   C } # D for Dihedral angle
| 13> { D 0  4  3  2   C } # D for Dihedral angle
| 14> { D 4  3  2  1   C } # D for Dihedral angle
| 15> { D 3  2  1  0   C } # D for Dihedral angle
| 16> { D 2  1  0  4   C } # D for Dihedral angle
| 17> { D 1  0  4  3   C } # D for Dihedral angle
| 18> { D 16  20  19  18   C } # D for Dihedral angle
| 19> { D 20  19  18  17   C } # D for Dihedral angle
| 20> { D 19  18  17  16   C } # D for Dihedral angle
| 21> { D 18  17  16  20   C } # D for Dihedral angle
| 22> { D 17  16  20  19   C } # D for Dihedral angle
| 23> { D 15  12  16  20   C } # D for Dihedral angle
| 24> end
| 25> end
| 26>
| 27>
| 28> #%pal
| 29> #nprocs 8
| 30> #end
| 31>
| 32> * xyz 0 1
| 33> C  -21.048   26.222   46.251
| 34> C  -20.361   27.558   45.944
| 35> C  -20.329   28.222   47.341
| 36> C  -20.110   27.022   48.296
| 37> O  -20.473   25.807   47.535
| 38> H  -20.833   25.428   45.533
| 39> H  -19.344   27.382   45.576
| 40> H  -20.898   28.157   45.201
| 41> H  -19.543   28.978   47.434
| 42> H  -21.289   28.710   47.548
| 43> H  -20.733   27.082   49.195
| 44> H  -19.064   26.913   48.597
| 45> C  -23.210   27.459   45.431
| 46> H  -22.488   27.712   44.645
| 47> H  -24.115   27.064   44.952
| 48> O  -22.586   26.394   46.375
| 49> C  -23.600   28.766   46.176
| 50> C  -24.316   29.746   45.240
| 51> C  -25.746   29.157   45.203
| 52> C  -25.937   28.608   46.640
| 53> O  -24.585   28.483   47.225
| 54> H  -22.716   29.175   46.668
| 55> H  -24.323   30.750   45.680
| 56> O  -23.664   29.833   43.833
| 57> H  -26.505   29.900   44.936
| 58> H  -25.800   28.344   44.469
| 59> H  -26.426   27.627   46.652
| 60> H  -26.503   29.294   47.277
| 61> H  -23.648   28.839   43.372
| 62> *
| 63>
| 64>                          ****END OF INPUT****
 Total Charge           Charge          ....    0
 Multiplicity           Mult            ....    1
 Number of Electrons    NEL             ....  102
FINAL SINGLE POINT ENERGY      -652.813829822659
FINAL SINGLE POINT ENERGY      -652.837517019303
FINAL SINGLE POINT ENERGY      -652.842539075751
FINAL SINGLE POINT ENERGY      -652.844915562724
FINAL SINGLE POINT ENERGY      -652.845276106037
FINAL SINGLE POINT ENERGY      -652.845374434086
FINAL SINGLE POINT ENERGY      -652.845385888628
FINAL SINGLE POINT ENERGY      -652.845389335560
                    ***********************HURRAY********************

CARTESIAN COORDINATES (ANGSTROEM)
---------------------------------
  C    -21.059831   26.283750   46.246258
  C    -20.187978   27.510032   45.963961
  C    -20.182616   28.233033   47.341385
  C    -20.196143   27.049267   48.334207
  O    -20.652223   25.872539   47.556726
  H    -20.859654   25.435664   45.584680
  H    -19.181199   27.159726   45.712078
  H    -20.535259   28.146020   45.145248
  H    -19.302557   28.871170   47.467397
  H    -21.071717   28.854201   47.464324
  H    -20.880352   27.201013   49.172655
  H    -19.200531   26.805221   48.716039
  C    -23.164893   27.456312   45.399450
  H    -22.526394   27.746170   44.554134
  H    -24.036569   26.926512   44.995763
  O    -22.507927   26.489292   46.260138
  C    -23.622708   28.723407   46.126714
  C    -24.369287   29.708380   45.209938
  C    -25.813992   29.119298   45.212753
  C    -25.951894   28.574911   46.652275
  O    -24.576174   28.447492   47.194955
  H    -22.767399   29.200721   46.607161
  H    -24.364136   30.700890   45.666071
  O    -23.784521   29.905582   43.898421
  H    -26.567699   29.872183   44.967220
  H    -25.884415   28.313427   44.469850
  H    -26.442682   27.597695   46.693594
  H    -26.490499   29.267484   47.306296
  H    -24.011751   29.160607   43.305306

 Multiplicity           Mult            ....    1
 Number of Electrons    NEL             ....  102
 Basis Dimension        Dim             ....  149

ORBITAL ENERGIES
----------------

  NO   OCC          E(Eh)            E(eV)
   0   2.0000     -19.154635      -521.2241
   1   2.0000     -19.137518      -520.7583
   2   2.0000     -19.134976      -520.6892
   3   2.0000     -19.132929      -520.6335
   4   2.0000     -10.276585      -279.6401
   5   2.0000     -10.249082      -278.8917
   6   2.0000     -10.232394      -278.4376
   7   2.0000     -10.231940      -278.4252
   8   2.0000     -10.231788      -278.4211
   9   2.0000     -10.221252      -278.1344
  10   2.0000     -10.199482      -277.5420
  11   2.0000     -10.190063      -277.2857
  12   2.0000     -10.187630      -277.2195
  13   2.0000      -1.046457       -28.4755
  14   2.0000      -1.036886       -28.2151
  15   2.0000      -1.017899       -27.6984
  16   2.0000      -0.987438       -26.8696
  17   2.0000      -0.785728       -21.3807
  18   2.0000      -0.785270       -21.3683
  19   2.0000      -0.769598       -20.9418
  20   2.0000      -0.732230       -19.9250
  21   2.0000      -0.684297       -18.6207
  22   2.0000      -0.614849       -16.7309
  23   2.0000      -0.604362       -16.4455
  24   2.0000      -0.592763       -16.1299
  25   2.0000      -0.571334       -15.5468
  26   2.0000      -0.525283       -14.2937
  27   2.0000      -0.510688       -13.8965
  28   2.0000      -0.503975       -13.7138
  29   2.0000      -0.497472       -13.5369
  30   2.0000      -0.465708       -12.6726
  31   2.0000      -0.453099       -12.3294
  32   2.0000      -0.447690       -12.1823
  33   2.0000      -0.435000       -11.8370
  34   2.0000      -0.429990       -11.7006
  35   2.0000      -0.425845       -11.5878
  36   2.0000      -0.407655       -11.0929
  37   2.0000      -0.403102       -10.9690
  38   2.0000      -0.380879       -10.3643
  39   2.0000      -0.376341       -10.2408
  40   2.0000      -0.361043        -9.8245
  41   2.0000      -0.353313        -9.6141
  42   2.0000      -0.349754        -9.5173
  43   2.0000      -0.332243        -9.0408
  44   2.0000      -0.319754        -8.7010
  45   2.0000      -0.307058        -8.3555
  46   2.0000      -0.288823        -7.8593
  47   2.0000      -0.275082        -7.4854
  48   2.0000      -0.264406        -7.1949
  49   2.0000      -0.251453        -6.8424
  50   2.0000      -0.232475        -6.3260
  51   0.0000       0.047708         1.2982
  52   0.0000       0.076663         2.0861
  53   0.0000       0.080568         2.1924
  54   0.0000       0.088256         2.4016
  55   0.0000       0.100539         2.7358

MULLIKEN ATOMIC CHARGES
-----------------------
   0 C :    0.319348
   1 C :   -0.302686
   2 C :   -0.311019
   3 C :   -0.000878
   4 O :   -0.495878
   5 H :    0.146318
   6 H :    0.153977
   7 H :    0.147578
   8 H :    0.143815
   9 H :    0.165325
  10 H :    0.159255
  11 H :    0.141071
  12 C :   -0.019224
  13 H :    0.123657
  14 H :    0.139352
  15 O :   -0.511910
  16 C :    0.086589
  17 C :    0.078662
  18 C :   -0.328811
  19 C :   -0.012374
  20 O :   -0.500617
  21 H :    0.156318
  22 H :    0.168960
  23 O :   -0.601576
  24 H :    0.159339
  25 H :    0.135735
  26 H :    0.151163
  27 H :    0.151666
  28 H :    0.356845
Sum of atomic charges:   -0.0000000

LOEWDIN ATOMIC CHARGES
----------------------
   0 C :    0.185469
   1 C :   -0.235277
   2 C :   -0.219409
   3 C :   -0.026356
   4 O :   -0.303154
   5 H :    0.098147
   6 H :    0.121229
   7 H :    0.114712
   8 H :    0.115236
   9 H :    0.113419
  10 H :    0.111751
  11 H :    0.102097
  12 C :   -0.049142
  13 H :    0.094795
  14 H :    0.103688
  15 O :   -0.326071
  16 C :    0.011546
  17 C :    0.033008
  18 C :   -0.242741
  19 C :   -0.030006
  20 O :   -0.312371
  21 H :    0.110047
  22 H :    0.119331
  23 O :   -0.409388
  24 H :    0.123232
  25 H :    0.104805
  26 H :    0.106443
  27 H :    0.106822
  28 H :    0.278139

  Mayer bond orders larger than 0.100000
B(  0-C ,  1-C ) :   0.9278 B(  0-C ,  4-O ) :   0.9343 B(  0-C ,  5-H ) :   0.9270
B(  0-C , 15-O ) :   0.8501 B(  1-C ,  2-C ) :   0.9520 B(  1-C ,  6-H ) :   0.9329
B(  1-C ,  7-H ) :   0.9277 B(  2-C ,  3-C ) :   0.9525 B(  2-C ,  8-H ) :   0.9451
B(  2-C ,  9-H ) :   0.9274 B(  3-C ,  4-O ) :   0.8374 B(  3-C , 10-H ) :   0.9331
B(  3-C , 11-H ) :   0.9400 B( 12-C , 13-H ) :   0.9010 B( 12-C , 14-H ) :   0.9329
B( 12-C , 15-O ) :   0.8669 B( 12-C , 16-C ) :   0.8857 B( 16-C , 17-C ) :   0.8646
B( 16-C , 20-O ) :   0.8792 B( 16-C , 21-H ) :   0.9164 B( 17-C , 18-C ) :   0.9276
B( 17-C , 22-H ) :   0.9321 B( 17-C , 23-O ) :   0.8926 B( 18-C , 19-C ) :   0.9383
B( 18-C , 24-H ) :   0.9410 B( 18-C , 25-H ) :   0.9404 B( 19-C , 20-O ) :   0.8487
B( 19-C , 26-H ) :   0.9305 B( 19-C , 27-H ) :   0.9372 B( 23-O , 28-H ) :   0.7984

FINAL SINGLE POINT ENERGY      -652.845389745658

DIPOLE MOMENT
-------------
                                X             Y             Z
Electronic contribution:     -0.57142      -2.97386       0.95234
Nuclear contribution   :      0.36120       3.78824      -1.97679
                        -----------------------------------------
Total Dipole Moment    :     -0.21022       0.81438      -1.02444
                        -----------------------------------------
Magnitude (a.u.)       :      1.32548
Magnitude (Debye)      :      3.36910

Rotational constants in cm-1:     0.050396     0.014398     0.013293
Rotational constants in MHz :  1510.843070   431.648318   398.514227

                             ****ORCA TERMINATED NORMALLY****
TOTAL RUN TIME: 0 days 1 hours 8 minutes 59 seconds 728 msec
