                         Program Version 4.2.0 -  RELEASE  -
|  1> # Test redundant internal optimization
|  2> #
|  3> ! RKS B3LYP  Opt TightSCF SmallPrint
|  4>
|  5> %basis
|  6>         Basis "6-31G"
|  7> end
|  8>
|  9> %geom
| 10> Constraints
| 11> { D 4  0  15  12  300.0   C } # D for Dihedral angle
| 12> { D 0  15  12  16  225.0   C } # D for Dihedral angle
| 13> { D 0  4  3  2   C } # D for Dihedral angle
| 14> { D 4  3  2  1   C } # D for Dihedral angle
| 15> { D 3  2  1  0   C } # D for Dihedral angle
| 16> { D 2  1  0  4   C } # D for Dihedral angle
| 17> { D 1  0  4  3   C } # D for Dihedral angle
| 18> { D 16  20  19  18   C } # D for Dihedral angle
| 19> { D 20  19  18  17   C } # D for Dihedral angle
| 20> { D 19  18  17  16   C } # D for Dihedral angle
| 21> { D 18  17  16  20   C } # D for Dihedral angle
| 22> { D 17  16  20  19   C } # D for Dihedral angle
| 23> { D 15  12  16  20   C } # D for Dihedral angle
| 24> end
| 25> end
| 26>
| 27>
| 28> #%pal
| 29> #nprocs 8
| 30> #end
| 31>
| 32> * xyz 0 1
| 33> C  -21.048   26.222   46.251
| 34> C  -20.361   27.558   45.944
| 35> C  -20.329   28.222   47.341
| 36> C  -20.110   27.022   48.296
| 37> O  -20.473   25.807   47.535
| 38> H  -20.833   25.428   45.533
| 39> H  -19.344   27.382   45.576
| 40> H  -20.898   28.157   45.201
| 41> H  -19.543   28.978   47.434
| 42> H  -21.289   28.710   47.548
| 43> H  -20.733   27.082   49.195
| 44> H  -19.064   26.913   48.597
| 45> C  -23.362   25.116   46.798
| 46> H  -22.707   24.242   46.687
| 47> H  -23.668   25.183   47.850
| 48> O  -22.586   26.394   46.375
| 49> C  -24.640   24.881   45.947
| 50> C  -24.289   24.606   44.480
| 51> C  -23.864   23.119   44.533
| 52> C  -24.804   22.522   45.610
| 53> O  -25.332   23.664   46.387
| 54> H  -25.329   25.713   46.099
| 55> H  -25.179   24.731   43.851
| 56> O  -23.170   25.534   43.936
| 57> H  -23.964   22.615   43.567
| 58> H  -22.816   23.039   44.846
| 59> H  -24.283   21.838   46.288
| 60> H  -25.662   22.004   45.175
| 61> H  -22.270   25.425   44.551
| 62> *
| 63>
| 64>                          ****END OF INPUT****
 Total Charge           Charge          ....    0
 Multiplicity           Mult            ....    1
 Number of Electrons    NEL             ....  102
FINAL SINGLE POINT ENERGY      -652.825285625652
FINAL SINGLE POINT ENERGY      -652.852792013275
FINAL SINGLE POINT ENERGY      -652.859747522918
FINAL SINGLE POINT ENERGY      -652.862750864030
FINAL SINGLE POINT ENERGY      -652.864088063501
FINAL SINGLE POINT ENERGY      -652.865332558347
FINAL SINGLE POINT ENERGY      -652.866651858146
FINAL SINGLE POINT ENERGY      -652.867694909522
FINAL SINGLE POINT ENERGY      -652.868389644179
FINAL SINGLE POINT ENERGY      -652.868694793295
FINAL SINGLE POINT ENERGY      -652.868829921245
FINAL SINGLE POINT ENERGY      -652.868870725506
FINAL SINGLE POINT ENERGY      -652.868879327631
                    ***********************HURRAY********************

CARTESIAN COORDINATES (ANGSTROEM)
---------------------------------
  C    -21.041965   26.103502   46.291935
  C    -20.413284   27.450410   45.941108
  C    -20.424472   28.170359   47.307937
  C    -20.164510   27.026307   48.310926
  O    -20.474263   25.769161   47.573845
  H    -20.821799   25.270428   45.618841
  H    -19.389864   27.282637   45.588064
  H    -20.967388   27.987362   45.167877
  H    -19.668116   28.958533   47.373108
  H    -21.407324   28.618723   47.478575
  H    -20.798411   27.076990   49.199460
  H    -19.117062   26.954230   48.616578
  C    -23.243120   25.119330   46.834056
  H    -22.593651   24.236565   46.819484
  H    -23.559438   25.289111   47.866094
  O    -22.483883   26.296955   46.367049
  C    -24.469425   24.917297   45.938523
  C    -24.170880   24.608360   44.462430
  C    -23.829484   23.091835   44.519664
  C    -24.772415   22.563626   45.621405
  O    -25.216108   23.750968   46.404414
  H    -25.137846   25.777415   46.044437
  H    -25.088342   24.759931   43.879136
  O    -23.098801   25.375442   43.867274
  H    -23.984519   22.598014   43.556589
  H    -22.773899   22.983367   44.788877
  H    -24.287687   21.854757   46.299903
  H    -25.677492   22.101890   45.216540
  H    -22.874550   26.113494   44.476872

 Multiplicity           Mult            ....    1
 Number of Electrons    NEL             ....  102
 Basis Dimension        Dim             ....  149

ORBITAL ENERGIES
----------------

  NO   OCC          E(Eh)            E(eV)
   0   2.0000     -19.161314      -521.4059
   1   2.0000     -19.149705      -521.0900
   2   2.0000     -19.141424      -520.8646
   3   2.0000     -19.124130      -520.3940
   4   2.0000     -10.287067      -279.9253
   5   2.0000     -10.234203      -278.4868
   6   2.0000     -10.234052      -278.4827
   7   2.0000     -10.232056      -278.4284
   8   2.0000     -10.231921      -278.4247
   9   2.0000     -10.227393      -278.3015
  10   2.0000     -10.192845      -277.3614
  11   2.0000     -10.191091      -277.3137
  12   2.0000     -10.181937      -277.0646
  13   2.0000      -1.064311       -28.9614
  14   2.0000      -1.027680       -27.9646
  15   2.0000      -1.006984       -27.4014
  16   2.0000      -0.997170       -27.1344
  17   2.0000      -0.795968       -21.6594
  18   2.0000      -0.774151       -21.0657
  19   2.0000      -0.767463       -20.8837
  20   2.0000      -0.734578       -19.9889
  21   2.0000      -0.676859       -18.4183
  22   2.0000      -0.607027       -16.5180
  23   2.0000      -0.599090       -16.3021
  24   2.0000      -0.594725       -16.1833
  25   2.0000      -0.579112       -15.7584
  26   2.0000      -0.526314       -14.3217
  27   2.0000      -0.519693       -14.1416
  28   2.0000      -0.498013       -13.5516
  29   2.0000      -0.492894       -13.4123
  30   2.0000      -0.470851       -12.8125
  31   2.0000      -0.456668       -12.4266
  32   2.0000      -0.441824       -12.0226
  33   2.0000      -0.438181       -11.9235
  34   2.0000      -0.428857       -11.6698
  35   2.0000      -0.415619       -11.3096
  36   2.0000      -0.409291       -11.1374
  37   2.0000      -0.388582       -10.5739
  38   2.0000      -0.378772       -10.3069
  39   2.0000      -0.366836        -9.9821
  40   2.0000      -0.364412        -9.9161
  41   2.0000      -0.356011        -9.6875
  42   2.0000      -0.353603        -9.6220
  43   2.0000      -0.339664        -9.2427
  44   2.0000      -0.335235        -9.1222
  45   2.0000      -0.309099        -8.4110
  46   2.0000      -0.294839        -8.0230
  47   2.0000      -0.279463        -7.6046
  48   2.0000      -0.266939        -7.2638
  49   2.0000      -0.254325        -6.9205
  50   2.0000      -0.243697        -6.6313
  51   0.0000       0.058491         1.5916
  52   0.0000       0.078368         2.1325
  53   0.0000       0.092656         2.5213
  54   0.0000       0.096792         2.6338
  55   0.0000       0.108386         2.9493

MULLIKEN ATOMIC CHARGES
-----------------------
   0 C :    0.274817
   1 C :   -0.265899
   2 C :   -0.299555
   3 C :   -0.006788
   4 O :   -0.512375
   5 H :    0.164946
   6 H :    0.153335
   7 H :    0.157248
   8 H :    0.145364
   9 H :    0.164106
  10 H :    0.150952
  11 H :    0.147610
  12 C :   -0.004755
  13 H :    0.151626
  14 H :    0.165062
  15 O :   -0.552898
  16 C :    0.046023
  17 C :    0.115860
  18 C :   -0.300940
  19 C :   -0.018023
  20 O :   -0.520774
  21 H :    0.158037
  22 H :    0.142881
  23 O :   -0.639812
  24 H :    0.152058
  25 H :    0.151623
  26 H :    0.144843
  27 H :    0.149080
  28 H :    0.386349
Sum of atomic charges:   -0.0000000

LOEWDIN ATOMIC CHARGES
----------------------
   0 C :    0.167714
   1 C :   -0.214450
   2 C :   -0.215955
   3 C :   -0.027008
   4 O :   -0.323545
   5 H :    0.105124
   6 H :    0.118779
   7 H :    0.122969
   8 H :    0.115774
   9 H :    0.120037
  10 H :    0.107578
  11 H :    0.105611
  12 C :   -0.040984
  13 H :    0.109053
  14 H :    0.117465
  15 O :   -0.342668
  16 C :    0.013242
  17 C :    0.039193
  18 C :   -0.230593
  19 C :   -0.031255
  20 O :   -0.322089
  21 H :    0.113383
  22 H :    0.100490
  23 O :   -0.434654
  24 H :    0.121460
  25 H :    0.113759
  26 H :    0.103206
  27 H :    0.105938
  28 H :    0.282425

  Mayer bond orders larger than 0.100000
B(  0-C ,  1-C ) :   0.9492 B(  0-C ,  4-O ) :   0.9115 B(  0-C ,  5-H ) :   0.9111
B(  0-C , 15-O ) :   0.8111 B(  1-C ,  2-C ) :   0.9530 B(  1-C ,  6-H ) :   0.9384
B(  1-C ,  7-H ) :   0.9363 B(  2-C ,  3-C ) :   0.9560 B(  2-C ,  8-H ) :   0.9447
B(  2-C ,  9-H ) :   0.9441 B(  3-C ,  4-O ) :   0.8302 B(  3-C , 10-H ) :   0.9356
B(  3-C , 11-H ) :   0.9402 B( 12-C , 13-H ) :   0.9214 B( 12-C , 14-H ) :   0.9311
B( 12-C , 15-O ) :   0.7848 B( 12-C , 16-C ) :   0.9004 B( 16-C , 17-C ) :   0.9139
B( 16-C , 20-O ) :   0.8578 B( 16-C , 21-H ) :   0.9287 B( 17-C , 18-C ) :   0.9161
B( 17-C , 22-H ) :   0.9244 B( 17-C , 23-O ) :   0.9150 B( 18-C , 19-C ) :   0.9399
B( 18-C , 24-H ) :   0.9444 B( 18-C , 25-H ) :   0.9408 B( 19-C , 20-O ) :   0.8342
B( 19-C , 26-H ) :   0.9339 B( 19-C , 27-H ) :   0.9381 B( 23-O , 28-H ) :   0.7326

FINAL SINGLE POINT ENERGY      -652.868879968906

DIPOLE MOMENT
-------------
                                X             Y             Z
Electronic contribution:     -2.65009      -0.90310      -0.02076
Nuclear contribution   :      3.22888       1.33706       0.25668
                        -----------------------------------------
Total Dipole Moment    :      0.57879       0.43396       0.23592
                        -----------------------------------------
Magnitude (a.u.)       :      0.76091
Magnitude (Debye)      :      1.93407

Rotational constants in cm-1:     0.059256     0.013792     0.012667
Rotational constants in MHz :  1776.459182   413.461788   379.737079

                             ****ORCA TERMINATED NORMALLY****
TOTAL RUN TIME: 0 days 0 hours 41 minutes 31 seconds 288 msec
