                         Program Version 4.2.0 -  RELEASE  -
|  1> # Test redundant internal optimization
|  2> #
|  3> ! RKS B3LYP  Opt TightSCF SmallPrint
|  4>
|  5> %basis
|  6>         Basis "6-31G"
|  7> end
|  8>
|  9> %geom
| 10> Constraints
| 11> { D 4  0  15  12  90.0   C } # D for Dihedral angle
| 12> { D 0  15  12  16  150.0   C } # D for Dihedral angle
| 13> { D 0  4  3  2   C } # D for Dihedral angle
| 14> { D 4  3  2  1   C } # D for Dihedral angle
| 15> { D 3  2  1  0   C } # D for Dihedral angle
| 16> { D 2  1  0  4   C } # D for Dihedral angle
| 17> { D 1  0  4  3   C } # D for Dihedral angle
| 18> { D 16  20  19  18   C } # D for Dihedral angle
| 19> { D 20  19  18  17   C } # D for Dihedral angle
| 20> { D 19  18  17  16   C } # D for Dihedral angle
| 21> { D 18  17  16  20   C } # D for Dihedral angle
| 22> { D 17  16  20  19   C } # D for Dihedral angle
| 23> { D 15  12  16  20   C } # D for Dihedral angle
| 24> end
| 25> end
| 26>
| 27>
| 28> #%pal
| 29> #nprocs 8
| 30> #end
| 31>
| 32> * xyz 0 1
| 33> C  -21.048   26.222   46.251
| 34> C  -20.361   27.558   45.944
| 35> C  -20.329   28.222   47.341
| 36> C  -20.110   27.022   48.296
| 37> O  -20.473   25.807   47.535
| 38> H  -20.833   25.428   45.533
| 39> H  -19.344   27.382   45.576
| 40> H  -20.898   28.157   45.201
| 41> H  -19.543   28.978   47.434
| 42> H  -21.289   28.710   47.548
| 43> H  -20.733   27.082   49.195
| 44> H  -19.064   26.913   48.597
| 45> C  -23.061   27.816   46.783
| 46> H  -23.113   27.880   47.877
| 47> H  -22.351   28.574   46.428
| 48> O  -22.586   26.394   46.375
| 49> C  -24.459   28.170   46.206
| 50> C  -24.844   29.618   46.531
| 51> C  -24.037   30.403   45.470
| 52> C  -24.071   29.465   44.238
| 53> O  -24.436   28.123   44.741
| 54> H  -25.184   27.424   46.539
| 55> O  -26.370   29.823   46.322
| 56> H  -24.594   29.910   47.557
| 57> H  -24.463   31.389   45.256
| 58> H  -23.007   30.551   45.814
| 59> H  -23.103   29.406   43.729
| 60> H  -24.836   29.757   43.512
| 61> H  -26.643   29.537   45.301
| 62> *
| 63>
| 64>                          ****END OF INPUT****
 Total Charge           Charge          ....    0
 Multiplicity           Mult            ....    1
 Number of Electrons    NEL             ....  102
FINAL SINGLE POINT ENERGY      -652.807988346510
FINAL SINGLE POINT ENERGY      -652.836197067887
FINAL SINGLE POINT ENERGY      -652.850074915735
FINAL SINGLE POINT ENERGY      -652.852543405254
FINAL SINGLE POINT ENERGY      -652.852963835201
FINAL SINGLE POINT ENERGY      -652.853015099417
FINAL SINGLE POINT ENERGY      -652.853020890737
                    ***********************HURRAY********************

CARTESIAN COORDINATES (ANGSTROEM)
---------------------------------
  C    -21.221373   26.362200   46.371690
  C    -20.225812   27.467757   45.989651
  C    -19.899273   28.106351   47.372450
  C    -19.937436   26.879238   48.320618
  O    -20.676792   25.820814   47.598520
  H    -21.233473   25.526176   45.671731
  H    -19.333848   26.997246   45.564740
  H    -20.624658   28.175677   45.257637
  H    -18.920462   28.596183   47.381069
  H    -20.645219   28.852826   47.656912
  H    -20.441613   27.086083   49.269746
  H    -18.938150   26.485752   48.529048
  C    -23.104121   28.008624   46.855766
  H    -23.259419   28.040291   47.943790
  H    -22.398124   28.799953   46.579377
  O    -22.617431   26.705580   46.451366
  C    -24.431190   28.235705   46.133309
  C    -25.079801   29.599687   46.412822
  C    -24.325474   30.518064   45.416300
  C    -24.097342   29.594924   44.194054
  O    -24.275664   28.203769   44.676910
  H    -25.108031   27.413458   46.384032
  O    -26.505682   29.563267   46.134991
  H    -24.995757   29.927947   47.450086
  H    -24.922367   31.402385   45.180578
  H    -23.375345   30.850370   45.849770
  H    -23.096061   29.699451   43.763881
  H    -24.833503   29.758643   43.400799
  H    -26.659580   29.042579   45.318357

 Multiplicity           Mult            ....    1
 Number of Electrons    NEL             ....  102
 Basis Dimension        Dim             ....  149

ORBITAL ENERGIES
----------------

  NO   OCC          E(Eh)            E(eV)
   0   2.0000     -19.143846      -520.9305
   1   2.0000     -19.141666      -520.8712
   2   2.0000     -19.140947      -520.8516
   3   2.0000     -19.137886      -520.7684
   4   2.0000     -10.277781      -279.6726
   5   2.0000     -10.246201      -278.8133
   6   2.0000     -10.237010      -278.5632
   7   2.0000     -10.235579      -278.5243
   8   2.0000     -10.233837      -278.4769
   9   2.0000     -10.228705      -278.3372
  10   2.0000     -10.195888      -277.4442
  11   2.0000     -10.194117      -277.3960
  12   2.0000     -10.193490      -277.3790
  13   2.0000      -1.051188       -28.6043
  14   2.0000      -1.038172       -28.2501
  15   2.0000      -1.009028       -27.4571
  16   2.0000      -0.994873       -27.0719
  17   2.0000      -0.790574       -21.5126
  18   2.0000      -0.788561       -21.4578
  19   2.0000      -0.773771       -21.0554
  20   2.0000      -0.734050       -19.9745
  21   2.0000      -0.682240       -18.5647
  22   2.0000      -0.608431       -16.5562
  23   2.0000      -0.605292       -16.4708
  24   2.0000      -0.600589       -16.3428
  25   2.0000      -0.578584       -15.7441
  26   2.0000      -0.529058       -14.3964
  27   2.0000      -0.507807       -13.8181
  28   2.0000      -0.504097       -13.7172
  29   2.0000      -0.492722       -13.4077
  30   2.0000      -0.482854       -13.1391
  31   2.0000      -0.462359       -12.5814
  32   2.0000      -0.455285       -12.3889
  33   2.0000      -0.435917       -11.8619
  34   2.0000      -0.433048       -11.7838
  35   2.0000      -0.414103       -11.2683
  36   2.0000      -0.405573       -11.0362
  37   2.0000      -0.396980       -10.8024
  38   2.0000      -0.385527       -10.4907
  39   2.0000      -0.375403       -10.2152
  40   2.0000      -0.363130        -9.8813
  41   2.0000      -0.362451        -9.8628
  42   2.0000      -0.354810        -9.6549
  43   2.0000      -0.333119        -9.0646
  44   2.0000      -0.315224        -8.5777
  45   2.0000      -0.309586        -8.4243
  46   2.0000      -0.296783        -8.0759
  47   2.0000      -0.273631        -7.4459
  48   2.0000      -0.266310        -7.2467
  49   2.0000      -0.255031        -6.9397
  50   2.0000      -0.244440        -6.6515
  51   0.0000       0.053636         1.4595
  52   0.0000       0.075442         2.0529
  53   0.0000       0.079559         2.1649
  54   0.0000       0.098738         2.6868
  55   0.0000       0.101519         2.7625

MULLIKEN ATOMIC CHARGES
-----------------------
   0 C :    0.311488
   1 C :   -0.297168
   2 C :   -0.314756
   3 C :   -0.006169
   4 O :   -0.500344
   5 H :    0.170474
   6 H :    0.159418
   7 H :    0.152069
   8 H :    0.145385
   9 H :    0.144848
  10 H :    0.143868
  11 H :    0.146590
  12 C :   -0.002585
  13 H :    0.137376
  14 H :    0.125612
  15 O :   -0.511769
  16 C :    0.067809
  17 C :    0.076879
  18 C :   -0.293569
  19 C :   -0.030927
  20 O :   -0.510022
  21 H :    0.175052
  22 O :   -0.601328
  23 H :    0.150122
  24 H :    0.164918
  25 H :    0.137706
  26 H :    0.142266
  27 H :    0.149191
  28 H :    0.367566
Sum of atomic charges:    0.0000000

LOEWDIN ATOMIC CHARGES
----------------------
   0 C :    0.177935
   1 C :   -0.231918
   2 C :   -0.225076
   3 C :   -0.032226
   4 O :   -0.320510
   5 H :    0.115478
   6 H :    0.124911
   7 H :    0.117596
   8 H :    0.115566
   9 H :    0.106462
  10 H :    0.102307
  11 H :    0.104005
  12 C :   -0.042454
  13 H :    0.100737
  14 H :    0.092290
  15 O :   -0.308840
  16 C :    0.017231
  17 C :    0.035520
  18 C :   -0.241610
  19 C :   -0.039466
  20 O :   -0.320356
  21 H :    0.123301
  22 O :   -0.413237
  23 H :    0.114443
  24 H :    0.127882
  25 H :    0.109521
  26 H :    0.101586
  27 H :    0.103946
  28 H :    0.284976

  Mayer bond orders larger than 0.100000
B(  0-C ,  1-C ) :   0.9251 B(  0-C ,  4-O ) :   0.8991 B(  0-C ,  5-H ) :   0.9344
B(  0-C , 15-O ) :   0.8976 B(  1-C ,  2-C ) :   0.9529 B(  1-C ,  6-H ) :   0.9348
B(  1-C ,  7-H ) :   0.9317 B(  2-C ,  3-C ) :   0.9459 B(  2-C ,  8-H ) :   0.9459
B(  2-C ,  9-H ) :   0.9400 B(  3-C ,  4-O ) :   0.8521 B(  3-C , 10-H ) :   0.9342
B(  3-C , 11-H ) :   0.9389 B( 12-C , 13-H ) :   0.9125 B( 12-C , 14-H ) :   0.9048
B( 12-C , 15-O ) :   0.8494 B( 12-C , 16-C ) :   0.8942 B( 16-C , 17-C ) :   0.8981
B( 16-C , 20-O ) :   0.8639 B( 16-C , 21-H ) :   0.9221 B( 17-C , 18-C ) :   0.9098
B( 17-C , 22-O ) :   0.8978 B( 17-C , 23-H ) :   0.9334 B( 18-C , 19-C ) :   0.9381
B( 18-C , 24-H ) :   0.9374 B( 18-C , 25-H ) :   0.9346 B( 19-C , 20-O ) :   0.8543
B( 19-C , 26-H ) :   0.9346 B( 19-C , 27-H ) :   0.9373 B( 22-O , 28-H ) :   0.7923

FINAL SINGLE POINT ENERGY      -652.853020359080

DIPOLE MOMENT
-------------
                                X             Y             Z
Electronic contribution:     -4.91678      -5.41720      -0.57228
Nuclear contribution   :      6.03029       6.91599       0.41995
                        -----------------------------------------
Total Dipole Moment    :      1.11351       1.49879      -0.15233
                        -----------------------------------------
Magnitude (a.u.)       :      1.87336
Magnitude (Debye)      :      4.76170

Rotational constants in cm-1:     0.058877     0.012647     0.012403
Rotational constants in MHz :  1765.096207   379.144170   371.842844

                             ****ORCA TERMINATED NORMALLY****
TOTAL RUN TIME: 0 days 0 hours 21 minutes 35 seconds 161 msec
