                         Program Version 4.2.0 -  RELEASE  -
|  1> # Test redundant internal optimization
|  2> #
|  3> ! RKS B3LYP  Opt TightSCF SmallPrint
|  4>
|  5> %basis
|  6>         Basis "6-31G"
|  7> end
|  8>
|  9> %geom
| 10> Constraints
| 11> { D 4  0  15  12  345.0   C } # D for Dihedral angle
| 12> { D 0  15  12  16  195.0   C } # D for Dihedral angle
| 13> { D 0  4  3  2   C } # D for Dihedral angle
| 14> { D 4  3  2  1   C } # D for Dihedral angle
| 15> { D 3  2  1  0   C } # D for Dihedral angle
| 16> { D 2  1  0  4   C } # D for Dihedral angle
| 17> { D 1  0  4  3   C } # D for Dihedral angle
| 18> { D 16  20  19  18   C } # D for Dihedral angle
| 19> { D 20  19  18  17   C } # D for Dihedral angle
| 20> { D 19  18  17  16   C } # D for Dihedral angle
| 21> { D 18  17  16  20   C } # D for Dihedral angle
| 22> { D 17  16  20  19   C } # D for Dihedral angle
| 23> { D 15  12  16  20   C } # D for Dihedral angle
| 24> end
| 25> end
| 26>
| 27>
| 28> #%pal
| 29> #nprocs 8
| 30> #end
| 31>
| 32> * xyz 0 1
| 33> C  -21.048   26.222   46.251
| 34> C  -20.361   27.558   45.944
| 35> C  -20.329   28.222   47.341
| 36> C  -20.110   27.022   48.296
| 37> O  -20.473   25.807   47.535
| 38> H  -20.833   25.428   45.533
| 39> H  -19.344   27.382   45.576
| 40> H  -20.898   28.157   45.201
| 41> H  -19.543   28.978   47.434
| 42> H  -21.289   28.710   47.548
| 43> H  -20.733   27.082   49.195
| 44> H  -19.064   26.913   48.597
| 45> C  -23.221   25.764   47.645
| 46> H  -22.801   24.763   47.801
| 47> H  -22.994   26.373   48.530
| 48> O  -22.586   26.394   46.375
| 49> C  -24.766   25.635   47.544
| 50> C  -25.171   24.660   46.432
| 51> C  -24.947   23.292   47.119
| 52> C  -25.343   23.568   48.591
| 53> O  -25.311   25.036   48.766
| 54> H  -25.203   26.631   47.453
| 55> H  -26.228   24.798   46.179
| 56> O  -24.332   24.829   45.136
| 57> H  -25.542   22.490   46.670
| 58> H  -23.891   23.004   47.049
| 59> H  -24.652   23.107   49.304
| 60> H  -26.359   23.238   48.819
| 61> H  -23.269   24.696   45.367
| 62> *
| 63>
| 64>                          ****END OF INPUT****
 Total Charge           Charge          ....    0
 Multiplicity           Mult            ....    1
 Number of Electrons    NEL             ....  102
FINAL SINGLE POINT ENERGY      -652.829176833530
FINAL SINGLE POINT ENERGY      -652.853677804544
FINAL SINGLE POINT ENERGY      -652.860277600787
FINAL SINGLE POINT ENERGY      -652.862906261273
FINAL SINGLE POINT ENERGY      -652.864478172864
FINAL SINGLE POINT ENERGY      -652.865616222593
FINAL SINGLE POINT ENERGY      -652.866196165109
FINAL SINGLE POINT ENERGY      -652.866376753457
FINAL SINGLE POINT ENERGY      -652.866410432944
FINAL SINGLE POINT ENERGY      -652.866415095820
                    ***********************HURRAY********************

CARTESIAN COORDINATES (ANGSTROEM)
---------------------------------
  C    -21.058190   26.139574   46.357088
  C    -20.485055   27.498171   45.960333
  C    -20.399764   28.215147   47.325495
  C    -20.038838   27.077859   48.303738
  O    -20.385337   25.812581   47.586381
  H    -20.859044   25.317098   45.666029
  H    -19.490550   27.353578   45.523096
  H    -21.118274   28.020187   45.239675
  H    -19.655898   29.017504   47.331955
  H    -21.372049   28.650721   47.575769
  H    -20.599963   27.110570   49.240839
  H    -18.969428   27.021638   48.523189
  C    -23.127798   25.712107   47.729993
  H    -22.694455   24.735243   47.964581
  H    -22.943040   26.381552   48.575333
  O    -22.515888   26.255295   46.504623
  C    -24.637513   25.606634   47.485806
  C    -25.061203   24.630467   46.374028
  C    -24.944529   23.258045   47.099199
  C    -25.374953   23.587647   48.543496
  O    -25.260139   25.068445   48.693658
  H    -25.053010   26.606633   47.331395
  H    -26.112509   24.822413   46.128065
  O    -24.302782   24.701659   45.151356
  H    -25.573479   22.495917   46.632084
  H    -23.905152   22.917275   47.043873
  H    -24.749459   23.108824   49.303025
  H    -26.421260   23.336667   48.738881
  H    -23.531441   25.299549   45.298016

 Multiplicity           Mult            ....    1
 Number of Electrons    NEL             ....  102
 Basis Dimension        Dim             ....  149

ORBITAL ENERGIES
----------------

  NO   OCC          E(Eh)            E(eV)
   0   2.0000     -19.161355      -521.4070
   1   2.0000     -19.161245      -521.4040
   2   2.0000     -19.138104      -520.7743
   3   2.0000     -19.110729      -520.0294
   4   2.0000     -10.292935      -280.0850
   5   2.0000     -10.240247      -278.6513
   6   2.0000     -10.233820      -278.4764
   7   2.0000     -10.231985      -278.4265
   8   2.0000     -10.227757      -278.3114
   9   2.0000     -10.224156      -278.2134
  10   2.0000     -10.197947      -277.5002
  11   2.0000     -10.195912      -277.4449
  12   2.0000     -10.176582      -276.9189
  13   2.0000      -1.068304       -29.0700
  14   2.0000      -1.024266       -27.8717
  15   2.0000      -1.006288       -27.3825
  16   2.0000      -0.990095       -26.9419
  17   2.0000      -0.800785       -21.7905
  18   2.0000      -0.773533       -21.0489
  19   2.0000      -0.766093       -20.8465
  20   2.0000      -0.737370       -20.0648
  21   2.0000      -0.675947       -18.3935
  22   2.0000      -0.612464       -16.6660
  23   2.0000      -0.599138       -16.3034
  24   2.0000      -0.592849       -16.1322
  25   2.0000      -0.575444       -15.6586
  26   2.0000      -0.531590       -14.4653
  27   2.0000      -0.516423       -14.0526
  28   2.0000      -0.505959       -13.7678
  29   2.0000      -0.486577       -13.2404
  30   2.0000      -0.476032       -12.9535
  31   2.0000      -0.457548       -12.4505
  32   2.0000      -0.441423       -12.0117
  33   2.0000      -0.431708       -11.7474
  34   2.0000      -0.425963       -11.5910
  35   2.0000      -0.419522       -11.4158
  36   2.0000      -0.407915       -11.0999
  37   2.0000      -0.386561       -10.5189
  38   2.0000      -0.382386       -10.4053
  39   2.0000      -0.370465       -10.0809
  40   2.0000      -0.365440        -9.9441
  41   2.0000      -0.362071        -9.8524
  42   2.0000      -0.356068        -9.6891
  43   2.0000      -0.338886        -9.2216
  44   2.0000      -0.332984        -9.0610
  45   2.0000      -0.317108        -8.6289
  46   2.0000      -0.289643        -7.8816
  47   2.0000      -0.276678        -7.5288
  48   2.0000      -0.265593        -7.2272
  49   2.0000      -0.246142        -6.6979
  50   2.0000      -0.240853        -6.5539
  51   0.0000       0.058637         1.5956
  52   0.0000       0.073921         2.0115
  53   0.0000       0.093836         2.5534
  54   0.0000       0.098104         2.6696
  55   0.0000       0.100908         2.7459

MULLIKEN ATOMIC CHARGES
-----------------------
   0 C :    0.300707
   1 C :   -0.257298
   2 C :   -0.306016
   3 C :   -0.019497
   4 O :   -0.508581
   5 H :    0.162070
   6 H :    0.150366
   7 H :    0.164339
   8 H :    0.151109
   9 H :    0.161518
  10 H :    0.153109
  11 H :    0.155260
  12 C :   -0.003634
  13 H :    0.158781
  14 H :    0.152082
  15 O :   -0.573175
  16 C :    0.043439
  17 C :    0.123718
  18 C :   -0.305837
  19 C :   -0.017444
  20 O :   -0.522624
  21 H :    0.157054
  22 H :    0.143724
  23 O :   -0.642134
  24 H :    0.152219
  25 H :    0.147064
  26 H :    0.143377
  27 H :    0.146575
  28 H :    0.389728
Sum of atomic charges:   -0.0000000

LOEWDIN ATOMIC CHARGES
----------------------
   0 C :    0.180986
   1 C :   -0.216428
   2 C :   -0.217759
   3 C :   -0.030639
   4 O :   -0.314476
   5 H :    0.106913
   6 H :    0.116954
   7 H :    0.127592
   8 H :    0.119526
   9 H :    0.118345
  10 H :    0.106976
  11 H :    0.109658
  12 C :   -0.041503
  13 H :    0.109347
  14 H :    0.107093
  15 O :   -0.353002
  16 C :    0.017375
  17 C :    0.042189
  18 C :   -0.237051
  19 C :   -0.031694
  20 O :   -0.324309
  21 H :    0.113954
  22 H :    0.102900
  23 O :   -0.437802
  24 H :    0.121299
  25 H :    0.112114
  26 H :    0.102353
  27 H :    0.105116
  28 H :    0.283971

  Mayer bond orders larger than 0.100000
B(  0-C ,  1-C ) :   0.9421 B(  0-C ,  4-O ) :   0.9259 B(  0-C ,  5-H ) :   0.9257
B(  0-C , 15-O ) :   0.7913 B(  1-C ,  2-C ) :   0.9516 B(  1-C ,  6-H ) :   0.9351
B(  1-C ,  7-H ) :   0.9350 B(  2-C ,  3-C ) :   0.9545 B(  2-C ,  8-H ) :   0.9439
B(  2-C ,  9-H ) :   0.9446 B(  3-C ,  4-O ) :   0.8225 B(  3-C , 10-H ) :   0.9322
B(  3-C , 11-H ) :   0.9397 B( 12-C , 13-H ) :   0.9195 B( 12-C , 14-H ) :   0.9250
B( 12-C , 15-O ) :   0.7749 B( 12-C , 16-C ) :   0.9058 B( 15-O , 28-H ) :   0.1003
B( 16-C , 17-C ) :   0.9150 B( 16-C , 20-O ) :   0.8558 B( 16-C , 21-H ) :   0.9284
B( 17-C , 18-C ) :   0.9025 B( 17-C , 22-H ) :   0.9291 B( 17-C , 23-O ) :   0.9320
B( 18-C , 19-C ) :   0.9405 B( 18-C , 24-H ) :   0.9445 B( 18-C , 25-H ) :   0.9428
B( 19-C , 20-O ) :   0.8310 B( 19-C , 26-H ) :   0.9340 B( 19-C , 27-H ) :   0.9391
B( 23-O , 28-H ) :   0.7221

FINAL SINGLE POINT ENERGY      -652.866416686815

DIPOLE MOMENT
-------------
                                X             Y             Z
Electronic contribution:     -2.00673      -1.02395      -1.10073
Nuclear contribution   :      3.03265       1.66224       1.51458
                        -----------------------------------------
Total Dipole Moment    :      1.02592       0.63830       0.41385
                        -----------------------------------------
Magnitude (a.u.)       :      1.27719
Magnitude (Debye)      :      3.24635

Rotational constants in cm-1:     0.054640     0.014143     0.012815
Rotational constants in MHz :  1638.066162   424.007724   384.188156

                             ****ORCA TERMINATED NORMALLY****
TOTAL RUN TIME: 0 days 0 hours 38 minutes 18 seconds 13 msec
