                         Program Version 4.2.0 -  RELEASE  -
|  1> # Test redundant internal optimization
|  2> #
|  3> ! RKS B3LYP  Opt TightSCF SmallPrint
|  4>
|  5> %basis
|  6>         Basis "6-31G"
|  7> end
|  8>
|  9> %geom
| 10> Constraints
| 11> { D 4  0  15  12  225.0   C } # D for Dihedral angle
| 12> { D 0  15  12  16  345.0   C } # D for Dihedral angle
| 13> { D 0  4  3  2   C } # D for Dihedral angle
| 14> { D 4  3  2  1   C } # D for Dihedral angle
| 15> { D 3  2  1  0   C } # D for Dihedral angle
| 16> { D 2  1  0  4   C } # D for Dihedral angle
| 17> { D 1  0  4  3   C } # D for Dihedral angle
| 18> { D 16  20  19  18   C } # D for Dihedral angle
| 19> { D 20  19  18  17   C } # D for Dihedral angle
| 20> { D 19  18  17  16   C } # D for Dihedral angle
| 21> { D 18  17  16  20   C } # D for Dihedral angle
| 22> { D 17  16  20  19   C } # D for Dihedral angle
| 23> { D 15  12  16  20   C } # D for Dihedral angle
| 24> end
| 25> end
| 26>
| 27>
| 28> #%pal
| 29> #nprocs 8
| 30> #end
| 31>
| 32> * xyz 0 1
| 33> C  -21.048   26.222   46.251
| 34> C  -20.361   27.558   45.944
| 35> C  -20.329   28.222   47.341
| 36> C  -20.110   27.022   48.296
| 37> O  -20.473   25.807   47.535
| 38> H  -20.833   25.428   45.533
| 39> H  -19.344   27.382   45.576
| 40> H  -20.898   28.157   45.201
| 41> H  -19.543   28.978   47.434
| 42> H  -21.289   28.710   47.548
| 43> H  -20.733   27.082   49.195
| 44> H  -19.064   26.913   48.597
| 45> C  -23.415   25.773   45.218
| 46> H  -23.898   24.853   45.572
| 47> H  -24.200   26.468   44.891
| 48> O  -22.586   26.394   46.375
| 49> C  -22.548   25.423   43.977
| 50> C  -23.413   24.922   42.816
| 51> C  -23.970   26.247   42.245
| 52> C  -22.795   27.237   42.444
| 53> O  -21.899   26.628   43.450
| 54> H  -21.753   24.737   44.278
| 55> H  -22.789   24.413   42.073
| 56> O  -24.532   23.943   43.267
| 57> H  -24.272   26.164   41.196
| 58> H  -24.846   26.567   42.821
| 59> H  -23.129   28.216   42.808
| 60> H  -22.209   27.378   41.532
| 61> H  -25.171   24.431   44.011
| 62> *
| 63>
| 64>                          ****END OF INPUT****
 Total Charge           Charge          ....    0
 Multiplicity           Mult            ....    1
 Number of Electrons    NEL             ....  102
FINAL SINGLE POINT ENERGY      -652.820007650140
FINAL SINGLE POINT ENERGY      -652.843324012242
FINAL SINGLE POINT ENERGY      -652.848975372022
FINAL SINGLE POINT ENERGY      -652.851191309953
FINAL SINGLE POINT ENERGY      -652.851485906511
FINAL SINGLE POINT ENERGY      -652.851553358754
FINAL SINGLE POINT ENERGY      -652.851558261314
FINAL SINGLE POINT ENERGY      -652.851559172489
                    ***********************HURRAY********************

CARTESIAN COORDINATES (ANGSTROEM)
---------------------------------
  C    -20.884921   26.219659   46.228593
  C    -20.260146   27.598351   46.021788
  C    -20.410458   28.230406   47.425230
  C    -20.212557   27.025012   48.370327
  O    -20.424212   25.817132   47.533732
  H    -20.560386   25.453130   45.526388
  H    -19.201549   27.480222   45.759458
  H    -20.759162   28.152119   45.226150
  H    -19.685379   29.028827   47.609733
  H    -21.417855   28.642815   47.536148
  H    -20.924630   27.006086   49.199717
  H    -19.194208   26.957903   48.766004
  C    -23.199044   25.805361   45.226492
  H    -23.704235   24.915833   45.628041
  H    -23.952449   26.584064   45.057498
  O    -22.333781   26.340275   46.268733
  C    -22.546766   25.411201   43.900407
  C    -23.561417   24.920306   42.850495
  C    -24.092280   26.266105   42.262933
  C    -22.838990   27.168635   42.299107
  O    -21.883093   26.538407   43.248520
  H    -21.775172   24.655482   44.067156
  H    -23.031610   24.355030   42.080405
  O    -24.577591   24.012157   43.330552
  H    -24.497306   26.142075   41.255477
  H    -24.892170   26.658856   42.903873
  H    -23.054044   28.186685   42.637324
  H    -22.335713   27.217101   41.329368
  H    -25.238876   24.485765   43.875350

 Multiplicity           Mult            ....    1
 Number of Electrons    NEL             ....  102
 Basis Dimension        Dim             ....  149

ORBITAL ENERGIES
----------------

  NO   OCC          E(Eh)            E(eV)
   0   2.0000     -19.156450      -521.2735
   1   2.0000     -19.149967      -521.0971
   2   2.0000     -19.130126      -520.5572
   3   2.0000     -19.127472      -520.4850
   4   2.0000     -10.268397      -279.4173
   5   2.0000     -10.254156      -279.0298
   6   2.0000     -10.240955      -278.6705
   7   2.0000     -10.240003      -278.6446
   8   2.0000     -10.232951      -278.4528
   9   2.0000     -10.214186      -277.9421
  10   2.0000     -10.203149      -277.6418
  11   2.0000     -10.173935      -276.8468
  12   2.0000     -10.168907      -276.7100
  13   2.0000      -1.045069       -28.4378
  14   2.0000      -1.037314       -28.2268
  15   2.0000      -1.024568       -27.8799
  16   2.0000      -0.981614       -26.7111
  17   2.0000      -0.791136       -21.5279
  18   2.0000      -0.776164       -21.1205
  19   2.0000      -0.768057       -20.8999
  20   2.0000      -0.728734       -19.8299
  21   2.0000      -0.681361       -18.5408
  22   2.0000      -0.620210       -16.8768
  23   2.0000      -0.605664       -16.4810
  24   2.0000      -0.586466       -15.9586
  25   2.0000      -0.559629       -15.2283
  26   2.0000      -0.538101       -14.6425
  27   2.0000      -0.515629       -14.0310
  28   2.0000      -0.493381       -13.4256
  29   2.0000      -0.479522       -13.0485
  30   2.0000      -0.470091       -12.7918
  31   2.0000      -0.454091       -12.3564
  32   2.0000      -0.442402       -12.0384
  33   2.0000      -0.435895       -11.8613
  34   2.0000      -0.433100       -11.7852
  35   2.0000      -0.423649       -11.5281
  36   2.0000      -0.408328       -11.1112
  37   2.0000      -0.392018       -10.6674
  38   2.0000      -0.386642       -10.5211
  39   2.0000      -0.366801        -9.9812
  40   2.0000      -0.357139        -9.7182
  41   2.0000      -0.348284        -9.4773
  42   2.0000      -0.341057        -9.2806
  43   2.0000      -0.336112        -9.1461
  44   2.0000      -0.323947        -8.8150
  45   2.0000      -0.303281        -8.2527
  46   2.0000      -0.299360        -8.1460
  47   2.0000      -0.279511        -7.6059
  48   2.0000      -0.257576        -7.0090
  49   2.0000      -0.246955        -6.7200
  50   2.0000      -0.233872        -6.3640
  51   0.0000       0.046083         1.2540
  52   0.0000       0.069332         1.8866
  53   0.0000       0.082254         2.2382
  54   0.0000       0.096112         2.6154
  55   0.0000       0.099521         2.7081

MULLIKEN ATOMIC CHARGES
-----------------------
   0 C :    0.295275
   1 C :   -0.245989
   2 C :   -0.301663
   3 C :    0.000045
   4 O :   -0.507857
   5 H :    0.146667
   6 H :    0.136078
   7 H :    0.158588
   8 H :    0.135091
   9 H :    0.156938
  10 H :    0.147900
  11 H :    0.136509
  12 C :    0.025332
  13 H :    0.139271
  14 H :    0.130579
  15 O :   -0.535179
  16 C :    0.048017
  17 C :    0.082335
  18 C :   -0.323415
  19 C :   -0.013694
  20 O :   -0.518840
  21 H :    0.166613
  22 H :    0.171898
  23 O :   -0.594452
  24 H :    0.161171
  25 H :    0.138406
  26 H :    0.150309
  27 H :    0.154926
  28 H :    0.359140
Sum of atomic charges:   -0.0000000

LOEWDIN ATOMIC CHARGES
----------------------
   0 C :    0.183295
   1 C :   -0.220252
   2 C :   -0.218993
   3 C :   -0.026603
   4 O :   -0.314646
   5 H :    0.100524
   6 H :    0.109952
   7 H :    0.123700
   8 H :    0.110829
   9 H :    0.116502
  10 H :    0.105504
  11 H :    0.099416
  12 C :   -0.040612
  13 H :    0.103212
  14 H :    0.098910
  15 O :   -0.335144
  16 C :    0.001914
  17 C :    0.038527
  18 C :   -0.241536
  19 C :   -0.029203
  20 O :   -0.325562
  21 H :    0.115605
  22 H :    0.120841
  23 O :   -0.402284
  24 H :    0.124829
  25 H :    0.106476
  26 H :    0.105936
  27 H :    0.108614
  28 H :    0.280250

  Mayer bond orders larger than 0.100000
B(  0-C ,  1-C ) :   0.9413 B(  0-C ,  4-O ) :   0.9187 B(  0-C ,  5-H ) :   0.9141
B(  0-C , 15-O ) :   0.8294 B(  1-C ,  2-C ) :   0.9527 B(  1-C ,  6-H ) :   0.9375
B(  1-C ,  7-H ) :   0.9329 B(  2-C ,  3-C ) :   0.9539 B(  2-C ,  8-H ) :   0.9458
B(  2-C ,  9-H ) :   0.9446 B(  3-C ,  4-O ) :   0.8410 B(  3-C , 10-H ) :   0.9354
B(  3-C , 11-H ) :   0.9402 B( 12-C , 13-H ) :   0.9042 B( 12-C , 14-H ) :   0.9301
B( 12-C , 15-O ) :   0.8590 B( 12-C , 16-C ) :   0.9042 B( 16-C , 17-C ) :   0.8686
B( 16-C , 20-O ) :   0.8467 B( 16-C , 21-H ) :   0.9215 B( 17-C , 18-C ) :   0.9232
B( 17-C , 22-H ) :   0.9321 B( 17-C , 23-O ) :   0.9084 B( 18-C , 19-C ) :   0.9396
B( 18-C , 24-H ) :   0.9410 B( 18-C , 25-H ) :   0.9399 B( 19-C , 20-O ) :   0.8394
B( 19-C , 26-H ) :   0.9313 B( 19-C , 27-H ) :   0.9376 B( 23-O , 28-H ) :   0.7958

FINAL SINGLE POINT ENERGY      -652.851559048264

DIPOLE MOMENT
-------------
                                X             Y             Z
Electronic contribution:     -0.27403      -4.65927       0.49154
Nuclear contribution   :     -0.35828       5.67682      -1.40650
                        -----------------------------------------
Total Dipole Moment    :     -0.63231       1.01755      -0.91496
                        -----------------------------------------
Magnitude (a.u.)       :      1.50744
Magnitude (Debye)      :      3.83162

Rotational constants in cm-1:     0.059652     0.013364     0.011899
Rotational constants in MHz :  1788.331826   400.638325   356.731950

                             ****ORCA TERMINATED NORMALLY****
TOTAL RUN TIME: 0 days 0 hours 26 minutes 56 seconds 644 msec
