                         Program Version 4.2.1 -  RELEASE  -
|  1> # Test redundant internal optimization
|  2> #
|  3> ! RKS B3LYP  Opt TightSCF SmallPrint
|  4>
|  5> %basis
|  6>         Basis "6-31G"
|  7> end
|  8>
|  9> %geom
| 10> Constraints
| 11> { D 4  0  19  14  225.0   C } # D for Dihedral angle
| 12> { D 0  19  14  12  165.0   C } # D for Dihedral angle
| 13> { D 0  4  3  2   C } # D for Dihedral angle
| 14> { D 4  3  2  1   C } # D for Dihedral angle
| 15> { D 3  2  1  0   C } # D for Dihedral angle
| 16> { D 2  1  0  4   C } # D for Dihedral angle
| 17> { D 1  0  4  3   C } # D for Dihedral angle
| 18> { D 14  15  16  17   C } # D for Dihedral angle
| 19> { D 15  16  17  12   C } # D for Dihedral angle
| 20> { D 16  17  12  14   C } # D for Dihedral angle
| 21> { D 17  12  14  15   C } # D for Dihedral angle
| 22> { D 12  14  15  16   C } # D for Dihedral angle
| 23> end
| 24> end
| 25>
| 26>
| 27> #%pal
| 28> #nprocs 8
| 29> #end
| 30>
| 31> * xyz 0 1
| 32> C  -21.048   26.222   46.251
| 33> C  -20.361   27.558   45.944
| 34> C  -20.329   28.222   47.341
| 35> C  -20.110   27.022   48.296
| 36> O  -20.473   25.807   47.535
| 37> H  -20.833   25.428   45.533
| 38> H  -19.344   27.382   45.576
| 39> H  -20.898   28.157   45.201
| 40> H  -19.543   28.978   47.434
| 41> H  -21.289   28.710   47.548
| 42> H  -20.733   27.082   49.195
| 43> H  -19.064   26.913   48.597
| 44> C  -24.701   25.690   45.675
| 45> H  -25.240   24.999   45.007
| 46> C  -23.222   25.800   45.287
| 47> C  -23.284   26.768   44.082
| 48> C  -24.436   27.731   44.463
| 49> O  -25.217   27.055   45.523
| 50> H  -24.877   25.396   46.711
| 51> O  -22.472   26.381   46.366
| 52> H  -22.771   24.835   45.034
| 53> H  -22.340   27.293   43.910
| 54> H  -23.531   26.215   43.167
| 55> H  -25.096   27.953   43.618
| 56> H  -24.071   28.673   44.884
| 57> *
| 58>
| 59>                          ****END OF INPUT****
 Total Charge           Charge          ....    0
 Multiplicity           Mult            ....    1
 Number of Electrons    NEL             ....   86
FINAL SINGLE POINT ENERGY      -538.428690006308
FINAL SINGLE POINT ENERGY      -538.431074878159
FINAL SINGLE POINT ENERGY      -538.431270191129
FINAL SINGLE POINT ENERGY      -538.431307387542
FINAL SINGLE POINT ENERGY      -538.431315543651
                    ***********************HURRAY********************

CARTESIAN COORDINATES (ANGSTROEM)
---------------------------------
  C    -20.974730   26.219784   46.216461
  C    -20.313321   27.574959   45.966970
  C    -20.365189   28.221488   47.373389
  C    -20.159299   27.013473   48.313149
  O    -20.459161   25.810585   47.495415
  H    -20.723504   25.432641   45.497590
  H    -19.275393   27.420675   45.647313
  H    -20.830437   28.164848   45.206853
  H    -19.603036   28.994093   47.510680
  H    -21.350535   28.669152   47.533659
  H    -20.827264   27.022923   49.177704
  H    -19.124541   26.911118   48.653687
  C    -24.663096   25.737565   45.729849
  H    -25.254055   25.037249   45.122058
  C    -23.217924   25.798759   45.234901
  C    -23.343234   26.736405   44.017649
  C    -24.439198   27.739003   44.453697
  O    -25.155044   27.108299   45.581951
  H    -24.730784   25.471478   46.784744
  O    -22.417186   26.365381   46.311389
  H    -22.821255   24.810140   44.964056
  H    -22.397761   27.221985   43.762189
  H    -23.666733   26.152517   43.147414
  H    -25.151117   27.957685   43.650055
  H    -24.019201   28.677790   44.825178

 Multiplicity           Mult            ....    1
 Number of Electrons    NEL             ....   86
 Basis Dimension        Dim             ....  127

ORBITAL ENERGIES
----------------

  NO   OCC          E(Eh)            E(eV)
   0   2.0000     -19.139741      -520.8188
   1   2.0000     -19.138081      -520.7737
   2   2.0000     -19.128014      -520.4997
   3   2.0000     -10.280018      -279.7335
   4   2.0000     -10.242908      -278.7237
   5   2.0000     -10.222934      -278.1802
   6   2.0000     -10.222377      -278.1650
   7   2.0000     -10.220619      -278.1172
   8   2.0000     -10.189793      -277.2784
   9   2.0000     -10.186375      -277.1854
  10   2.0000     -10.184547      -277.1356
  11   2.0000      -1.052899       -28.6508
  12   2.0000      -1.014775       -27.6134
  13   2.0000      -0.989941       -26.9377
  14   2.0000      -0.789057       -21.4713
  15   2.0000      -0.779421       -21.2091
  16   2.0000      -0.743361       -20.2279
  17   2.0000      -0.720586       -19.6082
  18   2.0000      -0.607891       -16.5416
  19   2.0000      -0.602109       -16.3842
  20   2.0000      -0.595377       -16.2010
  21   2.0000      -0.579414       -15.7667
  22   2.0000      -0.519409       -14.1338
  23   2.0000      -0.505512       -13.7557
  24   2.0000      -0.482406       -13.1269
  25   2.0000      -0.481660       -13.1066
  26   2.0000      -0.454420       -12.3654
  27   2.0000      -0.446337       -12.1455
  28   2.0000      -0.422660       -11.5012
  29   2.0000      -0.417635       -11.3644
  30   2.0000      -0.406894       -11.0722
  31   2.0000      -0.387807       -10.5528
  32   2.0000      -0.377256       -10.2657
  33   2.0000      -0.368159       -10.0181
  34   2.0000      -0.358822        -9.7640
  35   2.0000      -0.353205        -9.6112
  36   2.0000      -0.347407        -9.4534
  37   2.0000      -0.312365        -8.4999
  38   2.0000      -0.310430        -8.4472
  39   2.0000      -0.297658        -8.0997
  40   2.0000      -0.264683        -7.2024
  41   2.0000      -0.249368        -6.7856
  42   2.0000      -0.232409        -6.3242
  43   0.0000       0.071676         1.9504
  44   0.0000       0.082318         2.2400
  45   0.0000       0.098526         2.6810
  46   0.0000       0.113993         3.1019
  47   0.0000       0.119416         3.2495

MULLIKEN ATOMIC CHARGES
-----------------------
   0 C :    0.291104
   1 C :   -0.259345
   2 C :   -0.301935
   3 C :   -0.000665
   4 O :   -0.502610
   5 H :    0.136329
   6 H :    0.142032
   7 H :    0.142978
   8 H :    0.141006
   9 H :    0.167714
  10 H :    0.154978
  11 H :    0.139944
  12 C :    0.005822
  13 H :    0.125570
  14 C :    0.065380
  15 C :   -0.296600
  16 C :    0.005826
  17 O :   -0.519446
  18 H :    0.171127
  19 O :   -0.506417
  20 H :    0.128142
  21 H :    0.145331
  22 H :    0.140115
  23 H :    0.136798
  24 H :    0.146822
Sum of atomic charges:   -0.0000000

LOEWDIN ATOMIC CHARGES
----------------------
   0 C :    0.177582
   1 C :   -0.224949
   2 C :   -0.216879
   3 C :   -0.025556
   4 O :   -0.311049
   5 H :    0.096042
   6 H :    0.112090
   7 H :    0.113467
   8 H :    0.113895
   9 H :    0.121877
  10 H :    0.109623
  11 H :    0.101407
  12 C :   -0.032803
  13 H :    0.092045
  14 C :    0.039407
  15 C :   -0.238921
  16 C :   -0.027901
  17 O :   -0.328614
  18 H :    0.125704
  19 O :   -0.325046
  20 H :    0.096420
  21 H :    0.115636
  22 H :    0.112845
  23 H :    0.098940
  24 H :    0.104735

  Mayer bond orders larger than 0.100000
B(  0-C ,  1-C ) :   0.9366 B(  0-C ,  4-O ) :   0.9327 B(  0-C ,  5-H ) :   0.9172
B(  0-C , 19-O ) :   0.8399 B(  1-C ,  2-C ) :   0.9551 B(  1-C ,  6-H ) :   0.9353
B(  1-C ,  7-H ) :   0.9341 B(  2-C ,  3-C ) :   0.9548 B(  2-C ,  8-H ) :   0.9449
B(  2-C ,  9-H ) :   0.9423 B(  3-C ,  4-O ) :   0.8362 B(  3-C , 10-H ) :   0.9342
B(  3-C , 11-H ) :   0.9398 B( 12-C , 13-H ) :   0.9157 B( 12-C , 14-C ) :   0.9372
B( 12-C , 17-O ) :   0.8687 B( 12-C , 18-H ) :   0.9299 B( 14-C , 15-C ) :   0.9285
B( 14-C , 19-O ) :   0.8442 B( 14-C , 20-H ) :   0.9177 B( 15-C , 16-C ) :   0.9458
B( 15-C , 21-H ) :   0.9373 B( 15-C , 22-H ) :   0.9365 B( 16-C , 17-O ) :   0.8620
B( 16-C , 23-H ) :   0.9325 B( 16-C , 24-H ) :   0.9362

FINAL SINGLE POINT ENERGY      -538.431316783019

DIPOLE MOMENT
-------------
                                X             Y             Z
Electronic contribution:     -1.84728      -2.92635       2.27426
Nuclear contribution   :      2.63757       3.17294      -3.28595
                        -----------------------------------------
Total Dipole Moment    :      0.79028       0.24659      -1.01169
                        -----------------------------------------
Magnitude (a.u.)       :      1.30724
Magnitude (Debye)      :      3.32275

Rotational constants in cm-1:     0.077280     0.020845     0.019923
Rotational constants in MHz :  2316.800672   624.925338   597.274075

                             ****ORCA TERMINATED NORMALLY****
TOTAL RUN TIME: 0 days 0 hours 7 minutes 20 seconds 656 msec
