                         Program Version 4.2.1 -  RELEASE  -
|  1> # Test redundant internal optimization
|  2> #
|  3> ! RKS B3LYP  Opt TightSCF SmallPrint
|  4>
|  5> %basis
|  6>         Basis "6-31G"
|  7> end
|  8>
|  9> %geom
| 10> Constraints
| 11> { D 4  0  19  14  195.0   C } # D for Dihedral angle
| 12> { D 0  19  14  12  105.0   C } # D for Dihedral angle
| 13> { D 0  4  3  2   C } # D for Dihedral angle
| 14> { D 4  3  2  1   C } # D for Dihedral angle
| 15> { D 3  2  1  0   C } # D for Dihedral angle
| 16> { D 2  1  0  4   C } # D for Dihedral angle
| 17> { D 1  0  4  3   C } # D for Dihedral angle
| 18> { D 14  15  16  17   C } # D for Dihedral angle
| 19> { D 15  16  17  12   C } # D for Dihedral angle
| 20> { D 16  17  12  14   C } # D for Dihedral angle
| 21> { D 17  12  14  15   C } # D for Dihedral angle
| 22> { D 12  14  15  16   C } # D for Dihedral angle
| 23> end
| 24> end
| 25>
| 26>
| 27> #%pal
| 28> #nprocs 8
| 29> #end
| 30>
| 31> * xyz 0 1
| 32> C  -21.048   26.222   46.251
| 33> C  -20.361   27.558   45.944
| 34> C  -20.329   28.222   47.341
| 35> C  -20.110   27.022   48.296
| 36> O  -20.473   25.807   47.535
| 37> H  -20.833   25.428   45.533
| 38> H  -19.344   27.382   45.576
| 39> H  -20.898   28.157   45.201
| 40> H  -19.543   28.978   47.434
| 41> H  -21.289   28.710   47.548
| 42> H  -20.733   27.082   49.195
| 43> H  -19.064   26.913   48.597
| 44> C  -23.894   25.131   44.836
| 45> H  -24.184   25.044   43.777
| 46> C  -23.163   26.451   45.109
| 47> C  -24.340   27.452   45.187
| 48> C  -25.468   26.618   45.846
| 49> O  -25.087   25.197   45.689
| 50> H  -23.341   24.238   45.131
| 51> O  -22.472   26.381   46.366
| 52> H  -22.438   26.709   44.329
| 53> H  -24.096   28.351   45.761
| 54> H  -24.634   27.769   44.179
| 55> H  -26.443   26.783   45.375
| 56> H  -25.556   26.810   46.920
| 57> *
| 58>
| 59>                          ****END OF INPUT****
 Total Charge           Charge          ....    0
 Multiplicity           Mult            ....    1
 Number of Electrons    NEL             ....   86
FINAL SINGLE POINT ENERGY      -538.426818784458
FINAL SINGLE POINT ENERGY      -538.429065903832
FINAL SINGLE POINT ENERGY      -538.429344086732
FINAL SINGLE POINT ENERGY      -538.429379583702
FINAL SINGLE POINT ENERGY      -538.429391357814
                    ***********************HURRAY********************

CARTESIAN COORDINATES (ANGSTROEM)
---------------------------------
  C    -21.005058   26.217015   46.227722
  C    -20.303337   27.543495   45.943645
  C    -20.349159   28.235044   47.328434
  C    -20.186696   27.052792   48.306509
  O    -20.514948   25.834611   47.519071
  H    -20.770297   25.403866   45.533045
  H    -19.268559   27.347006   45.638448
  H    -20.786965   28.130610   45.157550
  H    -19.564562   28.988222   47.447314
  H    -21.320200   28.719164   47.467165
  H    -20.862040   27.104396   49.163649
  H    -19.158563   26.928628   48.658778
  C    -23.920755   25.135148   44.803962
  H    -24.248173   25.072144   43.754560
  C    -23.172920   26.443711   45.059489
  C    -24.335850   27.444601   45.210113
  C    -25.434568   26.609450   45.910403
  O    -25.065694   25.190799   45.711254
  H    -23.340991   24.247369   45.063197
  O    -22.450204   26.388791   46.327062
  H    -22.495317   26.712441   44.238501
  H    -24.029078   28.317952   45.790017
  H    -24.664745   27.778450   44.219488
  H    -26.429833   26.785531   45.487667
  H    -25.462490   26.783762   46.988956

 Multiplicity           Mult            ....    1
 Number of Electrons    NEL             ....   86
 Basis Dimension        Dim             ....  127

ORBITAL ENERGIES
----------------

  NO   OCC          E(Eh)            E(eV)
   0   2.0000     -19.140573      -520.8415
   1   2.0000     -19.138474      -520.7844
   2   2.0000     -19.126146      -520.4489
   3   2.0000     -10.280693      -279.7519
   4   2.0000     -10.242383      -278.7094
   5   2.0000     -10.225142      -278.2403
   6   2.0000     -10.220888      -278.1245
   7   2.0000     -10.218630      -278.0631
   8   2.0000     -10.189155      -277.2610
   9   2.0000     -10.188011      -277.2299
  10   2.0000     -10.186728      -277.1949
  11   2.0000      -1.053777       -28.6747
  12   2.0000      -1.013855       -27.5884
  13   2.0000      -0.989330       -26.9210
  14   2.0000      -0.789526       -21.4841
  15   2.0000      -0.780642       -21.2423
  16   2.0000      -0.738335       -20.0911
  17   2.0000      -0.724260       -19.7081
  18   2.0000      -0.612234       -16.6597
  19   2.0000      -0.600083       -16.3291
  20   2.0000      -0.595156       -16.1950
  21   2.0000      -0.574660       -15.6373
  22   2.0000      -0.524651       -14.2765
  23   2.0000      -0.502246       -13.6668
  24   2.0000      -0.489050       -13.3077
  25   2.0000      -0.478844       -13.0300
  26   2.0000      -0.450033       -12.2460
  27   2.0000      -0.441799       -12.0220
  28   2.0000      -0.436469       -11.8769
  29   2.0000      -0.417238       -11.3536
  30   2.0000      -0.407733       -11.0950
  31   2.0000      -0.380704       -10.3595
  32   2.0000      -0.373916       -10.1748
  33   2.0000      -0.363697        -9.8967
  34   2.0000      -0.361449        -9.8355
  35   2.0000      -0.356543        -9.7020
  36   2.0000      -0.351742        -9.5714
  37   2.0000      -0.314948        -8.5702
  38   2.0000      -0.305634        -8.3167
  39   2.0000      -0.301145        -8.1946
  40   2.0000      -0.260065        -7.0767
  41   2.0000      -0.251398        -6.8409
  42   2.0000      -0.230993        -6.2856
  43   0.0000       0.072949         1.9850
  44   0.0000       0.093582         2.5465
  45   0.0000       0.096339         2.6215
  46   0.0000       0.109748         2.9864
  47   0.0000       0.116876         3.1804

MULLIKEN ATOMIC CHARGES
-----------------------
   0 C :    0.296788
   1 C :   -0.271163
   2 C :   -0.298510
   3 C :   -0.000675
   4 O :   -0.501178
   5 H :    0.138189
   6 H :    0.145568
   7 H :    0.141502
   8 H :    0.142300
   9 H :    0.158439
  10 H :    0.156191
  11 H :    0.141966
  12 C :    0.017547
  13 H :    0.118230
  14 C :    0.043213
  15 C :   -0.282953
  16 C :    0.005744
  17 O :   -0.516515
  18 H :    0.160540
  19 O :   -0.498199
  20 H :    0.121425
  21 H :    0.154065
  22 H :    0.138438
  23 H :    0.131789
  24 H :    0.157260
Sum of atomic charges:   -0.0000000

LOEWDIN ATOMIC CHARGES
----------------------
   0 C :    0.179684
   1 C :   -0.231339
   2 C :   -0.216699
   3 C :   -0.024407
   4 O :   -0.301888
   5 H :    0.095079
   6 H :    0.114143
   7 H :    0.112628
   8 H :    0.114489
   9 H :    0.116771
  10 H :    0.110532
  11 H :    0.102588
  12 C :   -0.040639
  13 H :    0.088479
  14 C :    0.032133
  15 C :   -0.224801
  16 C :   -0.026718
  17 O :   -0.326790
  18 H :    0.118912
  19 O :   -0.327514
  20 H :    0.094131
  21 H :    0.123000
  22 H :    0.111124
  23 H :    0.096811
  24 H :    0.110291

  Mayer bond orders larger than 0.100000
B(  0-C ,  1-C ) :   0.9287 B(  0-C ,  4-O ) :   0.9395 B(  0-C ,  5-H ) :   0.9199
B(  0-C , 19-O ) :   0.8362 B(  1-C ,  2-C ) :   0.9523 B(  1-C ,  6-H ) :   0.9335
B(  1-C ,  7-H ) :   0.9349 B(  2-C ,  3-C ) :   0.9556 B(  2-C ,  8-H ) :   0.9448
B(  2-C ,  9-H ) :   0.9440 B(  3-C ,  4-O ) :   0.8355 B(  3-C , 10-H ) :   0.9341
B(  3-C , 11-H ) :   0.9397 B( 12-C , 13-H ) :   0.9107 B( 12-C , 14-C ) :   0.9171
B( 12-C , 17-O ) :   0.8747 B( 12-C , 18-H ) :   0.9331 B( 14-C , 15-C ) :   0.9523
B( 14-C , 19-O ) :   0.8353 B( 14-C , 20-H ) :   0.9161 B( 15-C , 16-C ) :   0.9478
B( 15-C , 21-H ) :   0.9390 B( 15-C , 22-H ) :   0.9407 B( 16-C , 17-O ) :   0.8575
B( 16-C , 23-H ) :   0.9333 B( 16-C , 24-H ) :   0.9355

FINAL SINGLE POINT ENERGY      -538.429392254381

DIPOLE MOMENT
-------------
                                X             Y             Z
Electronic contribution:     -0.95209      -4.85677       1.39674
Nuclear contribution   :      1.62663       6.31868      -2.32379
                        -----------------------------------------
Total Dipole Moment    :      0.67453       1.46191      -0.92705
                        -----------------------------------------
Magnitude (a.u.)       :      1.85785
Magnitude (Debye)      :      4.72227

Rotational constants in cm-1:     0.081273     0.020017     0.019290
Rotational constants in MHz :  2436.502022   600.101317   578.314487

                             ****ORCA TERMINATED NORMALLY****
TOTAL RUN TIME: 0 days 0 hours 5 minutes 47 seconds 610 msec
