                         Program Version 4.2.0 -  RELEASE  -
|  1> # Test redundant internal optimization
|  2> #
|  3> ! RKS B3LYP  Opt TightSCF SmallPrint
|  4>
|  5> %basis
|  6>         Basis "6-31G"
|  7> end
|  8>
|  9> %geom
| 10> Constraints
| 11> { D 4  0  15  12  345.0   C } # D for Dihedral angle
| 12> { D 0  15  12  16  285.0   C } # D for Dihedral angle
| 13> { D 0  4  3  2   C } # D for Dihedral angle
| 14> { D 4  3  2  1   C } # D for Dihedral angle
| 15> { D 3  2  1  0   C } # D for Dihedral angle
| 16> { D 2  1  0  4   C } # D for Dihedral angle
| 17> { D 1  0  4  3   C } # D for Dihedral angle
| 18> { D 16  20  19  18   C } # D for Dihedral angle
| 19> { D 20  19  18  17   C } # D for Dihedral angle
| 20> { D 19  18  17  16   C } # D for Dihedral angle
| 21> { D 18  17  16  20   C } # D for Dihedral angle
| 22> { D 17  16  20  19   C } # D for Dihedral angle
| 23> { D 15  12  16  20   C } # D for Dihedral angle
| 24> end
| 25> end
| 26>
| 27>
| 28> #%pal
| 29> #nprocs 8
| 30> #end
| 31>
| 32> * xyz 0 1
| 33> C  -21.048   26.222   46.251
| 34> C  -20.361   27.558   45.944
| 35> C  -20.329   28.222   47.341
| 36> C  -20.110   27.022   48.296
| 37> O  -20.473   25.807   47.535
| 38> H  -20.833   25.428   45.533
| 39> H  -19.344   27.382   45.576
| 40> H  -20.898   28.157   45.201
| 41> H  -19.543   28.978   47.434
| 42> H  -21.289   28.710   47.548
| 43> H  -20.733   27.082   49.195
| 44> H  -19.064   26.913   48.597
| 45> C  -23.221   25.764   47.645
| 46> H  -22.613   26.025   48.521
| 47> H  -24.234   26.155   47.802
| 48> O  -22.586   26.394   46.375
| 49> C  -23.319   24.216   47.563
| 50> C  -24.082   23.773   46.308
| 51> C  -22.996   23.915   45.215
| 52> C  -21.695   23.519   45.957
| 53> O  -21.987   23.625   47.403
| 54> H  -23.729   23.833   48.499
| 55> O  -24.525   22.291   46.450
| 56> H  -24.970   24.381   46.107
| 57> H  -23.187   23.284   44.341
| 58> H  -22.943   24.955   44.871
| 59> H  -20.855   24.176   45.710
| 60> H  -21.403   22.483   45.762
| 61> H  -23.650   21.662   46.652
| 62> *
| 63>
| 64>                          ****END OF INPUT****
 Total Charge           Charge          ....    0
 Multiplicity           Mult            ....    1
 Number of Electrons    NEL             ....  102
FINAL SINGLE POINT ENERGY      -652.801292135219
FINAL SINGLE POINT ENERGY      -652.836655715444
FINAL SINGLE POINT ENERGY      -652.853273401546
FINAL SINGLE POINT ENERGY      -652.856322244443
FINAL SINGLE POINT ENERGY      -652.856758505201
FINAL SINGLE POINT ENERGY      -652.856801124078
FINAL SINGLE POINT ENERGY      -652.856808294557
FINAL SINGLE POINT ENERGY      -652.856808337560
                    ***********************HURRAY********************

CARTESIAN COORDINATES (ANGSTROEM)
---------------------------------
  C    -20.974419   26.416931   46.261926
  C    -20.459772   27.842329   46.065585
  C    -20.358748   28.346818   47.523998
  C    -19.930238   27.085390   48.303194
  O    -20.252881   25.934400   47.411286
  H    -20.747313   25.730562   45.444090
  H    -19.473045   27.806665   45.589230
  H    -21.132804   28.441343   45.448487
  H    -19.643490   29.167160   47.636442
  H    -21.338303   28.699864   47.860953
  H    -20.462316   26.955312   49.249503
  H    -18.853022   27.041053   48.487288
  C    -23.104234   25.774797   47.507412
  H    -22.600922   26.003866   48.454377
  H    -24.100921   26.226661   47.524326
  O    -22.422663   26.467885   46.422688
  C    -23.264736   24.245643   47.424761
  C    -24.089129   23.736194   46.232708
  C    -23.003740   23.591525   45.131788
  C    -21.757848   23.138510   45.935659
  O    -22.027621   23.478054   47.350708
  H    -23.755363   23.949904   48.360973
  O    -24.719878   22.460645   46.546011
  H    -24.907075   24.397634   45.947370
  H    -23.310339   22.868592   44.371771
  H    -22.837315   24.564186   44.658991
  H    -20.834752   23.631991   45.623471
  H    -21.601256   22.055294   45.892402
  H    -24.055857   21.872793   46.964603

 Multiplicity           Mult            ....    1
 Number of Electrons    NEL             ....  102
 Basis Dimension        Dim             ....  149

ORBITAL ENERGIES
----------------

  NO   OCC          E(Eh)            E(eV)
   0   2.0000     -19.146523      -521.0034
   1   2.0000     -19.141759      -520.8737
   2   2.0000     -19.136423      -520.7285
   3   2.0000     -19.131730      -520.6008
   4   2.0000     -10.280072      -279.7350
   5   2.0000     -10.233528      -278.4685
   6   2.0000     -10.231367      -278.4096
   7   2.0000     -10.230102      -278.3752
   8   2.0000     -10.229641      -278.3627
   9   2.0000     -10.223411      -278.1932
  10   2.0000     -10.189456      -277.2692
  11   2.0000     -10.186010      -277.1754
  12   2.0000     -10.179449      -276.9969
  13   2.0000      -1.054112       -28.6839
  14   2.0000      -1.030714       -28.0472
  15   2.0000      -1.000151       -27.2155
  16   2.0000      -0.991852       -26.9897
  17   2.0000      -0.791184       -21.5292
  18   2.0000      -0.774630       -21.0788
  19   2.0000      -0.765157       -20.8210
  20   2.0000      -0.733694       -19.9648
  21   2.0000      -0.673243       -18.3199
  22   2.0000      -0.605930       -16.4882
  23   2.0000      -0.600777       -16.3480
  24   2.0000      -0.596712       -16.2374
  25   2.0000      -0.563665       -15.3381
  26   2.0000      -0.524918       -14.2838
  27   2.0000      -0.506974       -13.7955
  28   2.0000      -0.495201       -13.4751
  29   2.0000      -0.482246       -13.1226
  30   2.0000      -0.472289       -12.8516
  31   2.0000      -0.461462       -12.5570
  32   2.0000      -0.447910       -12.1883
  33   2.0000      -0.434399       -11.8206
  34   2.0000      -0.416417       -11.3313
  35   2.0000      -0.414657       -11.2834
  36   2.0000      -0.395733       -10.7684
  37   2.0000      -0.387348       -10.5403
  38   2.0000      -0.374458       -10.1895
  39   2.0000      -0.369134       -10.0446
  40   2.0000      -0.360056        -9.7976
  41   2.0000      -0.359453        -9.7812
  42   2.0000      -0.347278        -9.4499
  43   2.0000      -0.331670        -9.0252
  44   2.0000      -0.324728        -8.8363
  45   2.0000      -0.305629        -8.3166
  46   2.0000      -0.293714        -7.9924
  47   2.0000      -0.267080        -7.2676
  48   2.0000      -0.262418        -7.1408
  49   2.0000      -0.258854        -7.0438
  50   2.0000      -0.232422        -6.3245
  51   0.0000       0.067268         1.8304
  52   0.0000       0.079097         2.1523
  53   0.0000       0.094419         2.5693
  54   0.0000       0.103274         2.8102
  55   0.0000       0.105653         2.8750

MULLIKEN ATOMIC CHARGES
-----------------------
   0 C :    0.311426
   1 C :   -0.259105
   2 C :   -0.301318
   3 C :   -0.019225
   4 O :   -0.498551
   5 H :    0.140308
   6 H :    0.144015
   7 H :    0.158684
   8 H :    0.145450
   9 H :    0.154842
  10 H :    0.147769
  11 H :    0.150633
  12 C :   -0.005640
  13 H :    0.143781
  14 H :    0.147299
  15 O :   -0.545307
  16 C :    0.078507
  17 C :    0.078367
  18 C :   -0.297290
  19 C :   -0.030254
  20 O :   -0.511614
  21 H :    0.149777
  22 O :   -0.605311
  23 H :    0.151656
  24 H :    0.154717
  25 H :    0.162713
  26 H :    0.151098
  27 H :    0.140461
  28 H :    0.362114
Sum of atomic charges:   -0.0000000

LOEWDIN ATOMIC CHARGES
----------------------
   0 C :    0.180437
   1 C :   -0.217868
   2 C :   -0.218001
   3 C :   -0.031770
   4 O :   -0.308604
   5 H :    0.094619
   6 H :    0.113064
   7 H :    0.124958
   8 H :    0.116269
   9 H :    0.115251
  10 H :    0.103397
  11 H :    0.106885
  12 C :   -0.036469
  13 H :    0.103130
  14 H :    0.114657
  15 O :   -0.344441
  16 C :    0.005145
  17 C :    0.036864
  18 C :   -0.242830
  19 C :   -0.036911
  20 O :   -0.317963
  21 H :    0.114523
  22 O :   -0.418485
  23 H :    0.115481
  24 H :    0.122064
  25 H :    0.122581
  26 H :    0.103775
  27 H :    0.099081
  28 H :    0.281161

  Mayer bond orders larger than 0.100000
B(  0-C ,  1-C ) :   0.9372 B(  0-C ,  4-O ) :   0.9220 B(  0-C ,  5-H ) :   0.9163
B(  0-C , 15-O ) :   0.8279 B(  1-C ,  2-C ) :   0.9548 B(  1-C ,  6-H ) :   0.9368
B(  1-C ,  7-H ) :   0.9357 B(  2-C ,  3-C ) :   0.9521 B(  2-C ,  8-H ) :   0.9448
B(  2-C ,  9-H ) :   0.9456 B(  3-C ,  4-O ) :   0.8337 B(  3-C , 10-H ) :   0.9318
B(  3-C , 11-H ) :   0.9399 B( 12-C , 13-H ) :   0.9208 B( 12-C , 14-H ) :   0.9298
B( 12-C , 15-O ) :   0.8627 B( 12-C , 16-C ) :   0.8781 B( 16-C , 17-C ) :   0.9072
B( 16-C , 20-O ) :   0.8768 B( 16-C , 21-H ) :   0.9164 B( 17-C , 18-C ) :   0.9209
B( 17-C , 22-O ) :   0.8892 B( 17-C , 23-H ) :   0.9354 B( 18-C , 19-C ) :   0.9423
B( 18-C , 24-H ) :   0.9371 B( 18-C , 25-H ) :   0.9240 B( 19-C , 20-O ) :   0.8446
B( 19-C , 26-H ) :   0.9226 B( 19-C , 27-H ) :   0.9378 B( 22-O , 28-H ) :   0.7962

FINAL SINGLE POINT ENERGY      -652.856807348552

DIPOLE MOMENT
-------------
                                X             Y             Z
Electronic contribution:     -2.18445      -4.23157       0.92383
Nuclear contribution   :      2.79675       5.19228      -0.99262
                        -----------------------------------------
Total Dipole Moment    :      0.61231       0.96071      -0.06879
                        -----------------------------------------
Magnitude (a.u.)       :      1.14132
Magnitude (Debye)      :      2.90101

Rotational constants in cm-1:     0.062246     0.014961     0.014788
Rotational constants in MHz :  1866.087992   448.511406   443.343203

                             ****ORCA TERMINATED NORMALLY****
TOTAL RUN TIME: 0 days 1 hours 4 minutes 38 seconds 650 msec
