                         Program Version 4.2.0 -  RELEASE  -
|  1> # Test redundant internal optimization
|  2> #
|  3> ! RKS B3LYP  Opt TightSCF SmallPrint
|  4>
|  5> %basis
|  6>         Basis "6-31G"
|  7> end
|  8>
|  9> %geom
| 10> Constraints
| 11> { D 4  0  15  12  210.0   C } # D for Dihedral angle
| 12> { D 0  15  12  16  90.0   C } # D for Dihedral angle
| 13> { D 0  4  3  2   C } # D for Dihedral angle
| 14> { D 4  3  2  1   C } # D for Dihedral angle
| 15> { D 3  2  1  0   C } # D for Dihedral angle
| 16> { D 2  1  0  4   C } # D for Dihedral angle
| 17> { D 1  0  4  3   C } # D for Dihedral angle
| 18> { D 16  20  19  18   C } # D for Dihedral angle
| 19> { D 20  19  18  17   C } # D for Dihedral angle
| 20> { D 19  18  17  16   C } # D for Dihedral angle
| 21> { D 18  17  16  20   C } # D for Dihedral angle
| 22> { D 17  16  20  19   C } # D for Dihedral angle
| 23> { D 15  12  16  20   C } # D for Dihedral angle
| 24> end
| 25> end
| 26>
| 27>
| 28> #%pal
| 29> #nprocs 8
| 30> #end
| 31>
| 32> * xyz 0 1
| 33> C  -21.048   26.222   46.251
| 34> C  -20.361   27.558   45.944
| 35> C  -20.329   28.222   47.341
| 36> C  -20.110   27.022   48.296
| 37> O  -20.473   25.807   47.535
| 38> H  -20.833   25.428   45.533
| 39> H  -19.344   27.382   45.576
| 40> H  -20.898   28.157   45.201
| 41> H  -19.543   28.978   47.434
| 42> H  -21.289   28.710   47.548
| 43> H  -20.733   27.082   49.195
| 44> H  -19.064   26.913   48.597
| 45> C  -23.389   26.110   45.076
| 46> H  -24.291   26.735   45.064
| 47> H  -22.789   26.358   44.191
| 48> O  -22.586   26.394   46.375
| 49> C  -23.823   24.624   44.951
| 50> C  -22.618   23.681   45.050
| 51> C  -22.376   23.642   46.578
| 52> C  -23.808   23.726   47.164
| 53> O  -24.675   24.241   46.082
| 54> H  -24.419   24.500   44.045
| 55> H  -22.886   22.687   44.676
| 56> O  -21.381   24.186   44.258
| 57> H  -21.845   22.741   46.902
| 58> H  -21.781   24.510   46.888
| 59> H  -23.871   24.398   48.026
| 60> H  -24.200   22.745   47.450
| 61> H  -21.095   25.181   44.617
| 62> *
| 63>
| 64>                          ****END OF INPUT****
 Total Charge           Charge          ....    0
 Multiplicity           Mult            ....    1
 Number of Electrons    NEL             ....  102
FINAL SINGLE POINT ENERGY      -652.778310949781
FINAL SINGLE POINT ENERGY      -652.826749195333
FINAL SINGLE POINT ENERGY      -652.847205172468
FINAL SINGLE POINT ENERGY      -652.851546100622
FINAL SINGLE POINT ENERGY      -652.852189293486
FINAL SINGLE POINT ENERGY      -652.852480312093
FINAL SINGLE POINT ENERGY      -652.852617432944
FINAL SINGLE POINT ENERGY      -652.852784223200
FINAL SINGLE POINT ENERGY      -652.853174698938
FINAL SINGLE POINT ENERGY      -652.853819035954
FINAL SINGLE POINT ENERGY      -652.856022201802
FINAL SINGLE POINT ENERGY      -652.856766379903
FINAL SINGLE POINT ENERGY      -652.857560887597
FINAL SINGLE POINT ENERGY      -652.857528833678
FINAL SINGLE POINT ENERGY      -652.858925727638
FINAL SINGLE POINT ENERGY      -652.859399014458
FINAL SINGLE POINT ENERGY      -652.859617194051
FINAL SINGLE POINT ENERGY      -652.859638481013
FINAL SINGLE POINT ENERGY      -652.859648145406
                    ***********************HURRAY********************

CARTESIAN COORDINATES (ANGSTROEM)
---------------------------------
  C    -20.988860   26.375626   46.280401
  C    -20.339842   27.725669   45.977439
  C    -20.403651   28.429355   47.355619
  C    -20.189716   27.263445   48.345513
  O    -20.474811   26.024977   47.576295
  H    -20.754995   25.575112   45.579980
  H    -19.300118   27.570644   45.663619
  H    -20.862328   28.274872   45.189668
  H    -19.649608   29.214585   47.465796
  H    -21.393903   28.872226   47.494043
  H    -20.861110   27.301443   49.206916
  H    -19.155283   27.184332   48.693740
  C    -23.234979   26.238120   45.223352
  H    -24.123777   26.867145   45.321180
  H    -22.702410   26.525124   44.305156
  O    -22.437346   26.545436   46.402216
  C    -23.731824   24.792036   45.080429
  C    -22.704886   23.651539   44.979575
  C    -22.401940   23.353193   46.482641
  C    -23.776358   23.598273   47.149821
  O    -24.575122   24.397996   46.196992
  H    -24.381743   24.795288   44.194971
  H    -23.189751   22.783791   44.513268
  O    -21.565076   24.068420   44.179849
  H    -22.053804   22.325066   46.634822
  H    -21.648698   24.036058   46.875671
  H    -23.682273   24.156250   48.085058
  H    -24.328993   22.671241   47.332063
  H    -20.944796   23.322738   44.057908

 Multiplicity           Mult            ....    1
 Number of Electrons    NEL             ....  102
 Basis Dimension        Dim             ....  149

ORBITAL ENERGIES
----------------

  NO   OCC          E(Eh)            E(eV)
   0   2.0000     -19.154795      -521.2285
   1   2.0000     -19.135375      -520.7000
   2   2.0000     -19.129794      -520.5482
   3   2.0000     -19.127807      -520.4941
   4   2.0000     -10.262943      -279.2689
   5   2.0000     -10.243791      -278.7477
   6   2.0000     -10.227972      -278.3173
   7   2.0000     -10.219726      -278.0929
   8   2.0000     -10.219590      -278.0892
   9   2.0000     -10.216084      -277.9938
  10   2.0000     -10.178649      -276.9751
  11   2.0000     -10.177034      -276.9312
  12   2.0000     -10.175865      -276.8994
  13   2.0000      -1.043980       -28.4081
  14   2.0000      -1.032631       -28.0993
  15   2.0000      -1.011876       -27.5345
  16   2.0000      -0.982756       -26.7421
  17   2.0000      -0.778437       -21.1824
  18   2.0000      -0.770413       -20.9640
  19   2.0000      -0.758968       -20.6526
  20   2.0000      -0.724690       -19.7198
  21   2.0000      -0.670094       -18.2342
  22   2.0000      -0.599540       -16.3143
  23   2.0000      -0.592547       -16.1240
  24   2.0000      -0.587546       -15.9879
  25   2.0000      -0.557637       -15.1741
  26   2.0000      -0.525163       -14.2904
  27   2.0000      -0.508328       -13.8323
  28   2.0000      -0.489103       -13.3092
  29   2.0000      -0.484745       -13.1906
  30   2.0000      -0.460739       -12.5373
  31   2.0000      -0.450856       -12.2684
  32   2.0000      -0.436283       -11.8719
  33   2.0000      -0.427242       -11.6258
  34   2.0000      -0.423190       -11.5156
  35   2.0000      -0.407765       -11.0959
  36   2.0000      -0.397972       -10.8294
  37   2.0000      -0.389332       -10.5943
  38   2.0000      -0.368661       -10.0318
  39   2.0000      -0.361260        -9.8304
  40   2.0000      -0.354208        -9.6385
  41   2.0000      -0.349724        -9.5165
  42   2.0000      -0.343406        -9.3446
  43   2.0000      -0.328573        -8.9409
  44   2.0000      -0.309425        -8.4199
  45   2.0000      -0.295966        -8.0536
  46   2.0000      -0.293031        -7.9738
  47   2.0000      -0.274706        -7.4751
  48   2.0000      -0.258897        -7.0450
  49   2.0000      -0.248473        -6.7613
  50   2.0000      -0.225303        -6.1308
  51   0.0000       0.051712         1.4072
  52   0.0000       0.085138         2.3167
  53   0.0000       0.098600         2.6831
  54   0.0000       0.115832         3.1520
  55   0.0000       0.119113         3.2412

MULLIKEN ATOMIC CHARGES
-----------------------
   0 C :    0.266247
   1 C :   -0.255118
   2 C :   -0.298808
   3 C :    0.003305
   4 O :   -0.522743
   5 H :    0.179052
   6 H :    0.137634
   7 H :    0.143777
   8 H :    0.137185
   9 H :    0.162839
  10 H :    0.151030
  11 H :    0.137389
  12 C :   -0.011153
  13 H :    0.161142
  14 H :    0.132318
  15 O :   -0.515976
  16 C :    0.100282
  17 C :    0.076785
  18 C :   -0.333846
  19 C :   -0.003880
  20 O :   -0.519664
  21 H :    0.142199
  22 H :    0.140794
  23 O :   -0.610989
  24 H :    0.124252
  25 H :    0.213145
  26 H :    0.160195
  27 H :    0.135905
  28 H :    0.366701
Sum of atomic charges:    0.0000000

LOEWDIN ATOMIC CHARGES
----------------------
   0 C :    0.159958
   1 C :   -0.222611
   2 C :   -0.217157
   3 C :   -0.024731
   4 O :   -0.316922
   5 H :    0.112894
   6 H :    0.109560
   7 H :    0.115542
   8 H :    0.111929
   9 H :    0.119887
  10 H :    0.107661
  11 H :    0.099930
  12 C :   -0.040153
  13 H :    0.120023
  14 H :    0.099912
  15 O :   -0.335866
  16 C :    0.024634
  17 C :    0.031794
  18 C :   -0.249800
  19 C :   -0.022632
  20 O :   -0.321703
  21 H :    0.110722
  22 H :    0.099084
  23 O :   -0.416292
  24 H :    0.105972
  25 H :    0.141381
  26 H :    0.112001
  27 H :    0.097280
  28 H :    0.287704

  Mayer bond orders larger than 0.100000
B(  0-C ,  1-C ) :   0.9401 B(  0-C ,  4-O ) :   0.8885 B(  0-C ,  5-H ) :   0.8811
B(  0-C , 15-O ) :   0.8228 B(  1-C ,  2-C ) :   0.9520 B(  1-C ,  6-H ) :   0.9363
B(  1-C ,  7-H ) :   0.9392 B(  2-C ,  3-C ) :   0.9565 B(  2-C ,  8-H ) :   0.9455
B(  2-C ,  9-H ) :   0.9430 B(  3-C ,  4-O ) :   0.8329 B(  3-C , 10-H ) :   0.9353
B(  3-C , 11-H ) :   0.9406 B( 12-C , 13-H ) :   0.9333 B( 12-C , 14-H ) :   0.9094
B( 12-C , 15-O ) :   0.8835 B( 12-C , 16-C ) :   0.8939 B( 16-C , 17-C ) :   0.9264
B( 16-C , 20-O ) :   0.8814 B( 16-C , 21-H ) :   0.9219 B( 17-C , 18-C ) :   0.9223
B( 17-C , 22-H ) :   0.9251 B( 17-C , 23-O ) :   0.8591 B( 18-C , 19-C ) :   0.9448
B( 18-C , 24-H ) :   0.9442 B( 18-C , 25-H ) :   0.9054 B( 19-C , 20-O ) :   0.8389
B( 19-C , 26-H ) :   0.9303 B( 19-C , 27-H ) :   0.9371 B( 23-O , 28-H ) :   0.7998

FINAL SINGLE POINT ENERGY      -652.859651364669

DIPOLE MOMENT
-------------
                                X             Y             Z
Electronic contribution:     -2.73645      -2.64950      -1.28628
Nuclear contribution   :      3.65686       2.34667       0.74177
                        -----------------------------------------
Total Dipole Moment    :      0.92041      -0.30283      -0.54452
                        -----------------------------------------
Magnitude (a.u.)       :      1.11147
Magnitude (Debye)      :      2.82513

Rotational constants in cm-1:     0.046764     0.016914     0.016351
Rotational constants in MHz :  1401.939415   507.072915   490.179322

                             ****ORCA TERMINATED NORMALLY****
TOTAL RUN TIME: 0 days 1 hours 13 minutes 32 seconds 875 msec
