                         Program Version 4.2.0 -  RELEASE  -
|  1> # Test redundant internal optimization
|  2> #
|  3> ! RKS B3LYP  Opt TightSCF SmallPrint
|  4>
|  5> %basis
|  6>         Basis "6-31G"
|  7> end
|  8>
|  9> %geom
| 10> Constraints
| 11> { D 4  0  15  12  285.0   C } # D for Dihedral angle
| 12> { D 0  15  12  16  15.0   C } # D for Dihedral angle
| 13> { D 0  4  3  2   C } # D for Dihedral angle
| 14> { D 4  3  2  1   C } # D for Dihedral angle
| 15> { D 3  2  1  0   C } # D for Dihedral angle
| 16> { D 2  1  0  4   C } # D for Dihedral angle
| 17> { D 1  0  4  3   C } # D for Dihedral angle
| 18> { D 16  20  19  18   C } # D for Dihedral angle
| 19> { D 20  19  18  17   C } # D for Dihedral angle
| 20> { D 19  18  17  16   C } # D for Dihedral angle
| 21> { D 18  17  16  20   C } # D for Dihedral angle
| 22> { D 17  16  20  19   C } # D for Dihedral angle
| 23> { D 15  12  16  20   C } # D for Dihedral angle
| 24> end
| 25> end
| 26>
| 27>
| 28> #%pal
| 29> #nprocs 8
| 30> #end
| 31>
| 32> * xyz 0 1
| 33> C  -21.048   26.222   46.251
| 34> C  -20.361   27.558   45.944
| 35> C  -20.329   28.222   47.341
| 36> C  -20.110   27.022   48.296
| 37> O  -20.473   25.807   47.535
| 38> H  -20.833   25.428   45.533
| 39> H  -19.344   27.382   45.576
| 40> H  -20.898   28.157   45.201
| 41> H  -19.543   28.978   47.434
| 42> H  -21.289   28.710   47.548
| 43> H  -20.733   27.082   49.195
| 44> H  -19.064   26.913   48.597
| 45> C  -23.396   25.070   46.435
| 46> H  -24.154   25.145   47.225
| 47> H  -23.910   24.890   45.482
| 48> O  -22.586   26.394   46.375
| 49> C  -22.503   23.833   46.731
| 50> C  -23.314   22.534   46.669
| 51> C  -23.407   22.295   45.143
| 52> C  -22.042   22.811   44.623
| 53> O  -21.486   23.674   45.687
| 54> H  -21.974   23.991   47.673
| 55> O  -22.531   21.383   47.358
| 56> H  -24.297   22.617   47.146
| 57> H  -23.581   21.244   44.888
| 58> H  -24.229   22.883   44.719
| 59> H  -22.138   23.395   43.701
| 60> H  -21.325   22.001   44.457
| 61> H  -21.543   21.281   46.895
| 62> *
| 63>
| 64>                          ****END OF INPUT****
 Total Charge           Charge          ....    0
 Multiplicity           Mult            ....    1
 Number of Electrons    NEL             ....  102
FINAL SINGLE POINT ENERGY      -652.829889538949
FINAL SINGLE POINT ENERGY      -652.852479503544
FINAL SINGLE POINT ENERGY      -652.859497736421
FINAL SINGLE POINT ENERGY      -652.861745104393
FINAL SINGLE POINT ENERGY      -652.862118528707
FINAL SINGLE POINT ENERGY      -652.862184055278
FINAL SINGLE POINT ENERGY      -652.862188774472
                    ***********************HURRAY********************

CARTESIAN COORDINATES (ANGSTROEM)
---------------------------------
  C    -20.897340   26.253401   46.204327
  C    -20.436436   27.696733   45.989676
  C    -20.483579   28.261128   47.429224
  C    -20.061301   27.050493   48.292870
  O    -20.247064   25.851858   47.438947
  H    -20.602809   25.519756   45.457645
  H    -19.411835   27.690925   45.600518
  H    -21.081587   28.235436   45.292867
  H    -19.820883   29.120850   47.568142
  H    -21.505825   28.567282   47.668104
  H    -20.666092   26.941428   49.197473
  H    -19.003056   27.077188   48.570692
  C    -23.142366   25.091214   46.406636
  H    -23.860580   25.248658   47.220458
  H    -23.705963   25.041032   45.464355
  O    -22.335056   26.305844   46.354143
  C    -22.424105   23.759853   46.650733
  C    -23.366291   22.544991   46.640774
  C    -23.490818   22.256440   45.120084
  C    -22.082026   22.610307   44.578852
  O    -21.431258   23.456522   45.610287
  H    -21.858584   23.821817   47.583993
  O    -22.779624   21.425723   47.356704
  H    -24.327101   22.726740   47.123899
  H    -23.764691   21.213129   44.946206
  H    -24.261336   22.895007   44.674338
  H    -22.118270   23.162309   43.634742
  H    -21.449871   21.727499   44.442885
  H    -21.825253   21.368433   47.138427

 Multiplicity           Mult            ....    1
 Number of Electrons    NEL             ....  102
 Basis Dimension        Dim             ....  149

ORBITAL ENERGIES
----------------

  NO   OCC          E(Eh)            E(eV)
   0   2.0000     -19.147449      -521.0286
   1   2.0000     -19.139864      -520.8222
   2   2.0000     -19.134492      -520.6760
   3   2.0000     -19.129043      -520.5277
   4   2.0000     -10.263043      -279.2716
   5   2.0000     -10.245702      -278.7997
   6   2.0000     -10.234469      -278.4941
   7   2.0000     -10.234298      -278.4894
   8   2.0000     -10.231512      -278.4136
   9   2.0000     -10.216528      -278.0059
  10   2.0000     -10.192478      -277.3514
  11   2.0000     -10.176524      -276.9173
  12   2.0000     -10.175771      -276.8968
  13   2.0000      -1.045248       -28.4426
  14   2.0000      -1.035503       -28.1775
  15   2.0000      -1.008419       -27.4405
  16   2.0000      -0.982320       -26.7303
  17   2.0000      -0.788756       -21.4631
  18   2.0000      -0.778473       -21.1833
  19   2.0000      -0.763625       -20.7793
  20   2.0000      -0.726760       -19.7762
  21   2.0000      -0.671842       -18.2818
  22   2.0000      -0.607056       -16.5188
  23   2.0000      -0.600843       -16.3498
  24   2.0000      -0.588881       -16.0243
  25   2.0000      -0.567434       -15.4407
  26   2.0000      -0.525969       -14.3124
  27   2.0000      -0.507499       -13.8097
  28   2.0000      -0.493760       -13.4359
  29   2.0000      -0.477009       -12.9801
  30   2.0000      -0.475154       -12.9296
  31   2.0000      -0.455456       -12.3936
  32   2.0000      -0.444950       -12.1077
  33   2.0000      -0.438517       -11.9327
  34   2.0000      -0.416579       -11.3357
  35   2.0000      -0.407817       -11.0973
  36   2.0000      -0.396264       -10.7829
  37   2.0000      -0.392512       -10.6808
  38   2.0000      -0.377591       -10.2748
  39   2.0000      -0.366634        -9.9766
  40   2.0000      -0.362170        -9.8551
  41   2.0000      -0.347959        -9.4685
  42   2.0000      -0.339423        -9.2362
  43   2.0000      -0.332962        -9.0603
  44   2.0000      -0.322208        -8.7677
  45   2.0000      -0.310436        -8.4474
  46   2.0000      -0.289980        -7.8908
  47   2.0000      -0.275325        -7.4920
  48   2.0000      -0.259554        -7.0628
  49   2.0000      -0.248902        -6.7730
  50   2.0000      -0.235637        -6.4120
  51   0.0000       0.063459         1.7268
  52   0.0000       0.085096         2.3156
  53   0.0000       0.091135         2.4799
  54   0.0000       0.100878         2.7450
  55   0.0000       0.105589         2.8732

MULLIKEN ATOMIC CHARGES
-----------------------
   0 C :    0.282098
   1 C :   -0.257400
   2 C :   -0.295166
   3 C :   -0.003522
   4 O :   -0.515750
   5 H :    0.183891
   6 H :    0.142299
   7 H :    0.151539
   8 H :    0.135011
   9 H :    0.159429
  10 H :    0.140483
  11 H :    0.139655
  12 C :    0.020770
  13 H :    0.145882
  14 H :    0.130544
  15 O :   -0.545561
  16 C :    0.033741
  17 C :    0.078592
  18 C :   -0.291074
  19 C :   -0.035903
  20 O :   -0.519732
  21 H :    0.192969
  22 O :   -0.600597
  23 H :    0.152939
  24 H :    0.162095
  25 H :    0.144471
  26 H :    0.147870
  27 H :    0.152455
  28 H :    0.367972
Sum of atomic charges:   -0.0000000

LOEWDIN ATOMIC CHARGES
----------------------
   0 C :    0.168190
   1 C :   -0.214166
   2 C :   -0.215890
   3 C :   -0.030237
   4 O :   -0.330135
   5 H :    0.116836
   6 H :    0.112310
   7 H :    0.121594
   8 H :    0.110281
   9 H :    0.117771
  10 H :    0.101591
  11 H :    0.100838
  12 C :   -0.036426
  13 H :    0.110975
  14 H :    0.095420
  15 O :   -0.332702
  16 C :    0.000577
  17 C :    0.039162
  18 C :   -0.239881
  19 C :   -0.040685
  20 O :   -0.325645
  21 H :    0.130756
  22 O :   -0.412264
  23 H :    0.116391
  24 H :    0.126921
  25 H :    0.112989
  26 H :    0.104771
  27 H :    0.105209
  28 H :    0.285447

  Mayer bond orders larger than 0.100000
B(  0-C ,  1-C ) :   0.9441 B(  0-C ,  4-O ) :   0.8863 B(  0-C ,  5-H ) :   0.9005
B(  0-C , 15-O ) :   0.8406 B(  1-C ,  2-C ) :   0.9553 B(  1-C ,  6-H ) :   0.9419
B(  1-C ,  7-H ) :   0.9377 B(  2-C ,  3-C ) :   0.9554 B(  2-C ,  8-H ) :   0.9462
B(  2-C ,  9-H ) :   0.9445 B(  3-C ,  4-O ) :   0.8433 B(  3-C , 10-H ) :   0.9363
B(  3-C , 11-H ) :   0.9406 B( 12-C , 13-H ) :   0.9228 B( 12-C , 14-H ) :   0.9267
B( 12-C , 15-O ) :   0.8489 B( 12-C , 16-C ) :   0.9039 B( 16-C , 17-C ) :   0.8943
B( 16-C , 20-O ) :   0.8316 B( 16-C , 21-H ) :   0.9086 B( 17-C , 18-C ) :   0.9084
B( 17-C , 22-O ) :   0.8966 B( 17-C , 23-H ) :   0.9337 B( 18-C , 19-C ) :   0.9425
B( 18-C , 24-H ) :   0.9380 B( 18-C , 25-H ) :   0.9331 B( 19-C , 20-O ) :   0.8431
B( 19-C , 26-H ) :   0.9344 B( 19-C , 27-H ) :   0.9371 B( 22-O , 28-H ) :   0.7926

FINAL SINGLE POINT ENERGY      -652.862189456834

DIPOLE MOMENT
-------------
                                X             Y             Z
Electronic contribution:      0.45568      -3.24873       1.21079
Nuclear contribution   :     -0.73577       3.55000      -1.89208
                        -----------------------------------------
Total Dipole Moment    :     -0.28009       0.30127      -0.68130
                        -----------------------------------------
Magnitude (a.u.)       :      0.79585
Magnitude (Debye)      :      2.02289

Rotational constants in cm-1:     0.061236     0.013634     0.013045
Rotational constants in MHz :  1835.817036   408.731217   391.082232

                             ****ORCA TERMINATED NORMALLY****
TOTAL RUN TIME: 0 days 0 hours 18 minutes 7 seconds 102 msec
